 VARIABLES = "X", "Y" 
  ZONE I=         121 , J=         121 , F=POINT
   0.0000000000000000     
   8.3333333333333332E-003
   1.6666666666666666E-002
   2.5000000000000001E-002
   3.3333333333333333E-002
   4.1666666666666664E-002
   5.0000000000000003E-002
   5.8333333333333334E-002
   6.6666666666666666E-002
   7.4999999999999997E-002
   8.3333333333333329E-002
   9.1666666666666660E-002
  0.10000000000000001     
  0.10833333333333334     
  0.11666666666666667     
  0.12500000000000000     
  0.13333333333333333     
  0.14166666666666666     
  0.14999999999999999     
  0.15833333333333333     
  0.16666666666666666     
  0.17499999999999999     
  0.18333333333333332     
  0.19166666666666665     
  0.20000000000000001     
  0.20833333333333334     
  0.21666666666666667     
  0.22500000000000001     
  0.23333333333333334     
  0.24166666666666667     
  0.25000000000000000     
  0.25833333333333330     
  0.26666666666666666     
  0.27500000000000002     
  0.28333333333333333     
  0.29166666666666669     
  0.29999999999999999     
  0.30833333333333335     
  0.31666666666666665     
  0.32500000000000001     
  0.33333333333333331     
  0.34166666666666667     
  0.34999999999999998     
  0.35833333333333334     
  0.36666666666666664     
  0.37500000000000000     
  0.38333333333333330     
  0.39166666666666666     
  0.40000000000000002     
  0.40833333333333333     
  0.41666666666666669     
  0.42499999999999999     
  0.43333333333333335     
  0.44166666666666665     
  0.45000000000000001     
  0.45833333333333331     
  0.46666666666666667     
  0.47499999999999998     
  0.48333333333333334     
  0.49166666666666664     
  0.50000000000000000     
  0.50833333333333330     
  0.51666666666666661     
  0.52500000000000002     
  0.53333333333333333     
  0.54166666666666663     
  0.55000000000000004     
  0.55833333333333335     
  0.56666666666666665     
  0.57499999999999996     
  0.58333333333333337     
  0.59166666666666667     
  0.59999999999999998     
  0.60833333333333328     
  0.61666666666666670     
  0.62500000000000000     
  0.63333333333333330     
  0.64166666666666661     
  0.65000000000000002     
  0.65833333333333333     
  0.66666666666666663     
  0.67500000000000004     
  0.68333333333333335     
  0.69166666666666665     
  0.69999999999999996     
  0.70833333333333337     
  0.71666666666666667     
  0.72499999999999998     
  0.73333333333333328     
  0.74166666666666670     
  0.75000000000000000     
  0.75833333333333330     
  0.76666666666666661     
  0.77500000000000002     
  0.78333333333333333     
  0.79166666666666663     
  0.80000000000000004     
  0.80833333333333335     
  0.81666666666666665     
  0.82499999999999996     
  0.83333333333333337     
  0.84166666666666667     
  0.84999999999999998     
  0.85833333333333328     
  0.86666666666666670     
  0.87500000000000000     
  0.88333333333333330     
  0.89166666666666661     
  0.90000000000000002     
  0.90833333333333333     
  0.91666666666666663     
  0.92499999999999993     
  0.93333333333333335     
  0.94166666666666665     
  0.94999999999999996     
  0.95833333333333337     
  0.96666666666666667     
  0.97499999999999998     
  0.98333333333333328     
  0.99166666666666670     
   1.0000000000000000     
   0.0000000000000000     
   8.3333333333333332E-003
   1.6666666666666666E-002
   2.5000000000000001E-002
   3.3333333333333333E-002
   4.1666666666666664E-002
   5.0000000000000003E-002
   5.8333333333333334E-002
   6.6666666666666666E-002
   7.4999999999999997E-002
   8.3333333333333329E-002
   9.1666666666666660E-002
  0.10000000000000001     
  0.10833333333333334     
  0.11666666666666667     
  0.12500000000000000     
  0.13333333333333333     
  0.14166666666666666     
  0.14999999999999999     
  0.15833333333333333     
  0.16666666666666666     
  0.17499999999999999     
  0.18333333333333332     
  0.19166666666666665     
  0.20000000000000001     
  0.20833333333333334     
  0.21666666666666667     
  0.22500000000000001     
  0.23333333333333334     
  0.24166666666666667     
  0.25000000000000000     
  0.25833333333333330     
  0.26666666666666666     
  0.27500000000000002     
  0.28333333333333333     
  0.29166666666666669     
  0.29999999999999999     
  0.30833333333333335     
  0.31666666666666665     
  0.32500000000000001     
  0.33333333333333331     
  0.34166666666666667     
  0.34999999999999998     
  0.35833333333333334     
  0.36666666666666664     
  0.37500000000000000     
  0.38333333333333330     
  0.39166666666666666     
  0.40000000000000002     
  0.40833333333333333     
  0.41666666666666669     
  0.42499999999999999     
  0.43333333333333335     
  0.44166666666666665     
  0.45000000000000001     
  0.45833333333333331     
  0.46666666666666667     
  0.47499999999999998     
  0.48333333333333334     
  0.49166666666666664     
  0.50000000000000000     
  0.50833333333333330     
  0.51666666666666661     
  0.52500000000000002     
  0.53333333333333333     
  0.54166666666666663     
  0.55000000000000004     
  0.55833333333333335     
  0.56666666666666665     
  0.57499999999999996     
  0.58333333333333337     
  0.59166666666666667     
  0.59999999999999998     
  0.60833333333333328     
  0.61666666666666670     
  0.62500000000000000     
  0.63333333333333330     
  0.64166666666666661     
  0.65000000000000002     
  0.65833333333333333     
  0.66666666666666663     
  0.67500000000000004     
  0.68333333333333335     
  0.69166666666666665     
  0.69999999999999996     
  0.70833333333333337     
  0.71666666666666667     
  0.72499999999999998     
  0.73333333333333328     
  0.74166666666666670     
  0.75000000000000000     
  0.75833333333333330     
  0.76666666666666661     
  0.77500000000000002     
  0.78333333333333333     
  0.79166666666666663     
  0.80000000000000004     
  0.80833333333333335     
  0.81666666666666665     
  0.82499999999999996     
  0.83333333333333337     
  0.84166666666666667     
  0.84999999999999998     
  0.85833333333333328     
  0.86666666666666670     
  0.87500000000000000     
  0.88333333333333330     
  0.89166666666666661     
  0.90000000000000002     
  0.90833333333333333     
  0.91666666666666663     
  0.92499999999999993     
  0.93333333333333335     
  0.94166666666666665     
  0.94999999999999996     
  0.95833333333333337     
  0.96666666666666667     
  0.97499999999999998     
  0.98333333333333328     
  0.99166666666666670     
   1.0000000000000000     
