# vtk DataFile Version 2.0
pressures
ASCII
DATASET RECTILINEAR_GRID
DIMENSIONS  120  120    1
X_COORDINATES 120 float
      0.0041667
      0.0125000
      0.0208333
      0.0291667
      0.0375000
      0.0458333
      0.0541667
      0.0625000
      0.0708333
      0.0791667
      0.0875000
      0.0958333
      0.1041667
      0.1125000
      0.1208333
      0.1291667
      0.1375000
      0.1458333
      0.1541667
      0.1625000
      0.1708333
      0.1791667
      0.1875000
      0.1958333
      0.2041667
      0.2125000
      0.2208333
      0.2291667
      0.2375000
      0.2458333
      0.2541667
      0.2625000
      0.2708333
      0.2791667
      0.2875000
      0.2958333
      0.3041667
      0.3125000
      0.3208333
      0.3291667
      0.3375000
      0.3458333
      0.3541667
      0.3625000
      0.3708333
      0.3791667
      0.3875000
      0.3958333
      0.4041667
      0.4125000
      0.4208333
      0.4291667
      0.4375000
      0.4458333
      0.4541667
      0.4625000
      0.4708333
      0.4791667
      0.4875000
      0.4958333
      0.5041667
      0.5125000
      0.5208333
      0.5291667
      0.5375000
      0.5458333
      0.5541667
      0.5625000
      0.5708333
      0.5791667
      0.5875000
      0.5958333
      0.6041667
      0.6125000
      0.6208333
      0.6291667
      0.6375000
      0.6458333
      0.6541667
      0.6625000
      0.6708333
      0.6791667
      0.6875000
      0.6958333
      0.7041667
      0.7125000
      0.7208333
      0.7291667
      0.7375000
      0.7458333
      0.7541667
      0.7625000
      0.7708333
      0.7791667
      0.7875000
      0.7958333
      0.8041667
      0.8125000
      0.8208333
      0.8291667
      0.8375000
      0.8458333
      0.8541667
      0.8625000
      0.8708333
      0.8791667
      0.8875000
      0.8958333
      0.9041667
      0.9125000
      0.9208333
      0.9291667
      0.9375000
      0.9458333
      0.9541667
      0.9625000
      0.9708333
      0.9791667
      0.9875000
      0.9958333
Y_COORDINATES 120 float
      0.0041667
      0.0125000
      0.0208333
      0.0291667
      0.0375000
      0.0458333
      0.0541667
      0.0625000
      0.0708333
      0.0791667
      0.0875000
      0.0958333
      0.1041667
      0.1125000
      0.1208333
      0.1291667
      0.1375000
      0.1458333
      0.1541667
      0.1625000
      0.1708333
      0.1791667
      0.1875000
      0.1958333
      0.2041667
      0.2125000
      0.2208333
      0.2291667
      0.2375000
      0.2458333
      0.2541667
      0.2625000
      0.2708333
      0.2791667
      0.2875000
      0.2958333
      0.3041667
      0.3125000
      0.3208333
      0.3291667
      0.3375000
      0.3458333
      0.3541667
      0.3625000
      0.3708333
      0.3791667
      0.3875000
      0.3958333
      0.4041667
      0.4125000
      0.4208333
      0.4291667
      0.4375000
      0.4458333
      0.4541667
      0.4625000
      0.4708333
      0.4791667
      0.4875000
      0.4958333
      0.5041667
      0.5125000
      0.5208333
      0.5291667
      0.5375000
      0.5458333
      0.5541667
      0.5625000
      0.5708333
      0.5791667
      0.5875000
      0.5958333
      0.6041667
      0.6125000
      0.6208333
      0.6291667
      0.6375000
      0.6458333
      0.6541667
      0.6625000
      0.6708333
      0.6791667
      0.6875000
      0.6958333
      0.7041667
      0.7125000
      0.7208333
      0.7291667
      0.7375000
      0.7458333
      0.7541667
      0.7625000
      0.7708333
      0.7791667
      0.7875000
      0.7958333
      0.8041667
      0.8125000
      0.8208333
      0.8291667
      0.8375000
      0.8458333
      0.8541667
      0.8625000
      0.8708333
      0.8791667
      0.8875000
      0.8958333
      0.9041667
      0.9125000
      0.9208333
      0.9291667
      0.9375000
      0.9458333
      0.9541667
      0.9625000
      0.9708333
      0.9791667
      0.9875000
      0.9958333
Z_COORDINATES   1 float
      0.0000000
POINT_DATA 14400
SCALARS pressure float 1
LOOKUP_TABLE default
      0.0000018
      0.0000149
      0.0000211
      0.0000154
     -0.0000037
     -0.0000359
     -0.0000806
     -0.0001366
     -0.0002026
     -0.0002773
     -0.0003598
     -0.0004491
     -0.0005443
     -0.0006449
     -0.0007504
     -0.0008603
     -0.0009743
     -0.0010922
     -0.0012138
     -0.0013388
     -0.0014673
     -0.0015989
     -0.0017335
     -0.0018709
     -0.0020110
     -0.0021534
     -0.0022977
     -0.0024437
     -0.0025908
     -0.0027386
     -0.0028865
     -0.0030339
     -0.0031801
     -0.0033242
     -0.0034655
     -0.0036031
     -0.0037361
     -0.0038635
     -0.0039842
     -0.0040972
     -0.0042014
     -0.0042957
     -0.0043791
     -0.0044505
     -0.0045088
     -0.0045530
     -0.0045822
     -0.0045956
     -0.0045924
     -0.0045719
     -0.0045338
     -0.0044776
     -0.0044032
     -0.0043106
     -0.0042001
     -0.0040721
     -0.0039274
     -0.0037668
     -0.0035915
     -0.0034029
     -0.0032028
     -0.0029928
     -0.0027753
     -0.0025523
     -0.0023265
     -0.0021003
     -0.0018766
     -0.0016582
     -0.0014479
     -0.0012485
     -0.0010630
     -0.0008939
     -0.0007439
     -0.0006153
     -0.0005104
     -0.0004311
     -0.0003790
     -0.0003552
     -0.0003608
     -0.0003963
     -0.0004617
     -0.0005568
     -0.0006810
     -0.0008331
     -0.0010118
     -0.0012153
     -0.0014415
     -0.0016882
     -0.0019527
     -0.0022323
     -0.0025243
     -0.0028258
     -0.0031337
     -0.0034453
     -0.0037576
     -0.0040680
     -0.0043740
     -0.0046731
     -0.0049632
     -0.0052422
     -0.0055084
     -0.0057604
     -0.0059967
     -0.0062163
     -0.0064181
     -0.0066015
     -0.0067658
     -0.0069104
     -0.0070351
     -0.0071393
     -0.0072231
     -0.0072861
     -0.0073286
     -0.0073509
     -0.0073540
     -0.0073396
     -0.0073109
     -0.0072732
     -0.0072351
     -0.0072096
     -0.0000102
      0.0000027
      0.0000055
     -0.0000027
     -0.0000220
     -0.0000527
     -0.0000943
     -0.0001460
     -0.0002069
     -0.0002761
     -0.0003528
     -0.0004361
     -0.0005254
     -0.0006201
     -0.0007197
     -0.0008238
     -0.0009321
     -0.0010443
     -0.0011603
     -0.0012798
     -0.0014027
     -0.0015288
     -0.0016579
     -0.0017898
     -0.0019243
     -0.0020612
     -0.0022000
     -0.0023404
     -0.0024821
     -0.0026245
     -0.0027671
     -0.0029093
     -0.0030505
     -0.0031899
     -0.0033267
     -0.0034602
     -0.0035895
     -0.0037136
     -0.0038315
     -0.0039423
     -0.0040450
     -0.0041385
     -0.0042218
     -0.0042939
     -0.0043538
     -0.0044005
     -0.0044332
     -0.0044510
     -0.0044533
     -0.0044394
     -0.0044088
     -0.0043612
     -0.0042964
     -0.0042145
     -0.0041157
     -0.0040004
     -0.0038692
     -0.0037230
     -0.0035628
     -0.0033900
     -0.0032062
     -0.0030131
     -0.0028126
     -0.0026070
     -0.0023985
     -0.0021897
     -0.0019830
     -0.0017812
     -0.0015870
     -0.0014030
     -0.0012319
     -0.0010763
     -0.0009387
     -0.0008212
     -0.0007260
     -0.0006548
     -0.0006092
     -0.0005903
     -0.0005990
     -0.0006358
     -0.0007008
     -0.0007938
     -0.0009140
     -0.0010605
     -0.0012319
     -0.0014266
     -0.0016426
     -0.0018778
     -0.0021296
     -0.0023957
     -0.0026732
     -0.0029596
     -0.0032519
     -0.0035476
     -0.0038439
     -0.0041384
     -0.0044285
     -0.0047122
     -0.0049872
     -0.0052519
     -0.0055045
     -0.0057435
     -0.0059679
     -0.0061764
     -0.0063684
     -0.0065429
     -0.0066996
     -0.0068379
     -0.0069576
     -0.0070585
     -0.0071405
     -0.0072037
     -0.0072484
     -0.0072753
     -0.0072854
     -0.0072805
     -0.0072633
     -0.0072381
     -0.0072096
     -0.0071841
     -0.0000160
      0.0000000
      0.0000027
     -0.0000063
     -0.0000256
     -0.0000552
     -0.0000948
     -0.0001438
     -0.0002014
     -0.0002668
     -0.0003393
     -0.0004182
     -0.0005030
     -0.0005930
     -0.0006880
     -0.0007874
     -0.0008910
     -0.0009987
     -0.0011100
     -0.0012249
     -0.0013432
     -0.0014648
     -0.0015893
     -0.0017168
     -0.0018468
     -0.0019792
     -0.0021136
     -0.0022498
     -0.0023873
     -0.0025256
     -0.0026644
     -0.0028029
     -0.0029406
     -0.0030768
     -0.0032107
     -0.0033417
     -0.0034688
     -0.0035912
     -0.0037080
     -0.0038181
     -0.0039207
     -0.0040147
     -0.0040991
     -0.0041730
     -0.0042354
     -0.0042854
     -0.0043220
     -0.0043446
     -0.0043523
     -0.0043446
     -0.0043210
     -0.0042811
     -0.0042248
     -0.0041520
     -0.0040629
     -0.0039579
     -0.0038375
     -0.0037026
     -0.0035541
     -0.0033934
     -0.0032219
     -0.0030412
     -0.0028533
     -0.0026602
     -0.0024641
     -0.0022675
     -0.0020728
     -0.0018825
     -0.0016993
     -0.0015258
     -0.0013645
     -0.0012180
     -0.0010886
     -0.0009785
     -0.0008896
     -0.0008238
     -0.0007826
     -0.0007669
     -0.0007778
     -0.0008156
     -0.0008804
     -0.0009720
     -0.0010897
     -0.0012327
     -0.0013995
     -0.0015885
     -0.0017980
     -0.0020256
     -0.0022692
     -0.0025262
     -0.0027941
     -0.0030702
     -0.0033519
     -0.0036366
     -0.0039218
     -0.0042049
     -0.0044838
     -0.0047563
     -0.0050203
     -0.0052743
     -0.0055166
     -0.0057459
     -0.0059610
     -0.0061610
     -0.0063451
     -0.0065127
     -0.0066633
     -0.0067965
     -0.0069121
     -0.0070101
     -0.0070905
     -0.0071534
     -0.0071992
     -0.0072286
     -0.0072425
     -0.0072424
     -0.0072305
     -0.0072097
     -0.0071812
     -0.0071460
     -0.0000097
      0.0000085
      0.0000114
      0.0000021
     -0.0000172
     -0.0000463
     -0.0000848
     -0.0001321
     -0.0001873
     -0.0002500
     -0.0003193
     -0.0003948
     -0.0004759
     -0.0005622
     -0.0006532
     -0.0007486
     -0.0008482
     -0.0009518
     -0.0010591
     -0.0011699
     -0.0012842
     -0.0014017
     -0.0015224
     -0.0016459
     -0.0017721
     -0.0019008
     -0.0020317
     -0.0021644
     -0.0022986
     -0.0024338
     -0.0025696
     -0.0027055
     -0.0028409
     -0.0029751
     -0.0031074
     -0.0032371
     -0.0033634
     -0.0034854
     -0.0036022
     -0.0037130
     -0.0038168
     -0.0039125
     -0.0039993
     -0.0040761
     -0.0041420
     -0.0041962
     -0.0042376
     -0.0042655
     -0.0042792
     -0.0042780
     -0.0042614
     -0.0042291
     -0.0041807
     -0.0041164
     -0.0040361
     -0.0039402
     -0.0038292
     -0.0037039
     -0.0035652
     -0.0034143
     -0.0032526
     -0.0030817
     -0.0029034
     -0.0027198
     -0.0025330
     -0.0023453
     -0.0021591
     -0.0019770
     -0.0018015
     -0.0016352
     -0.0014806
     -0.0013402
     -0.0012162
     -0.0011109
     -0.0010262
     -0.0009639
     -0.0009254
     -0.0009118
     -0.0009239
     -0.0009622
     -0.0010269
     -0.0011176
     -0.0012338
     -0.0013744
     -0.0015382
     -0.0017235
     -0.0019286
     -0.0021513
     -0.0023893
     -0.0026402
     -0.0029014
     -0.0031705
     -0.0034447
     -0.0037216
     -0.0039987
     -0.0042735
     -0.0045440
     -0.0048079
     -0.0050636
     -0.0053092
     -0.0055433
     -0.0057647
     -0.0059723
     -0.0061652
     -0.0063427
     -0.0065043
     -0.0066495
     -0.0067782
     -0.0068902
     -0.0069854
     -0.0070640
     -0.0071262
     -0.0071722
     -0.0072027
     -0.0072184
     -0.0072202
     -0.0072097
     -0.0071889
     -0.0071561
     -0.0071084
      0.0000104
      0.0000284
      0.0000306
      0.0000204
      0.0000006
     -0.0000285
     -0.0000664
     -0.0001125
     -0.0001660
     -0.0002264
     -0.0002932
     -0.0003657
     -0.0004436
     -0.0005264
     -0.0006139
     -0.0007056
     -0.0008014
     -0.0009011
     -0.0010046
     -0.0011116
     -0.0012221
     -0.0013359
     -0.0014529
     -0.0015729
     -0.0016956
     -0.0018210
     -0.0019488
     -0.0020785
     -0.0022100
     -0.0023428
     -0.0024765
     -0.0026106
     -0.0027445
     -0.0028776
     -0.0030092
     -0.0031387
     -0.0032653
     -0.0033880
     -0.0035062
     -0.0036188
     -0.0037250
     -0.0038237
     -0.0039141
     -0.0039950
     -0.0040657
     -0.0041251
     -0.0041723
     -0.0042065
     -0.0042270
     -0.0042331
     -0.0042242
     -0.0041999
     -0.0041599
     -0.0041041
     -0.0040326
     -0.0039456
     -0.0038436
     -0.0037273
     -0.0035975
     -0.0034555
     -0.0033025
     -0.0031400
     -0.0029700
     -0.0027943
     -0.0026150
     -0.0024344
     -0.0022550
     -0.0020791
     -0.0019094
     -0.0017484
     -0.0015986
     -0.0014623
     -0.0013421
     -0.0012400
     -0.0011579
     -0.0010977
     -0.0010608
     -0.0010482
     -0.0010609
     -0.0010994
     -0.0011636
     -0.0012534
     -0.0013681
     -0.0015068
     -0.0016682
     -0.0018508
     -0.0020525
     -0.0022714
     -0.0025052
     -0.0027515
     -0.0030077
     -0.0032712
     -0.0035396
     -0.0038103
     -0.0040809
     -0.0043490
     -0.0046125
     -0.0048694
     -0.0051178
     -0.0053562
     -0.0055832
     -0.0057976
     -0.0059984
     -0.0061848
     -0.0063563
     -0.0065123
     -0.0066526
     -0.0067769
     -0.0068852
     -0.0069777
     -0.0070542
     -0.0071152
     -0.0071608
     -0.0071915
     -0.0072078
     -0.0072102
     -0.0071997
     -0.0071775
     -0.0071396
     -0.0070802
      0.0000447
      0.0000603
      0.0000605
      0.0000488
      0.0000278
     -0.0000019
     -0.0000399
     -0.0000853
     -0.0001377
     -0.0001965
     -0.0002612
     -0.0003312
     -0.0004064
     -0.0004862
     -0.0005704
     -0.0006588
     -0.0007512
     -0.0008474
     -0.0009473
     -0.0010509
     -0.0011580
     -0.0012684
     -0.0013821
     -0.0014990
     -0.0016189
     -0.0017415
     -0.0018668
     -0.0019943
     -0.0021238
     -0.0022550
     -0.0023875
     -0.0025207
     -0.0026541
     -0.0027873
     -0.0029194
     -0.0030499
     -0.0031780
     -0.0033029
     -0.0034237
     -0.0035396
     -0.0036496
     -0.0037527
     -0.0038480
     -0.0039345
     -0.0040111
     -0.0040770
     -0.0041312
     -0.0041728
     -0.0042011
     -0.0042152
     -0.0042147
     -0.0041989
     -0.0041676
     -0.0041206
     -0.0040578
     -0.0039796
     -0.0038862
     -0.0037783
     -0.0036568
     -0.0035227
     -0.0033773
     -0.0032221
     -0.0030589
     -0.0028895
     -0.0027161
     -0.0025409
     -0.0023664
     -0.0021949
     -0.0020291
     -0.0018714
     -0.0017244
     -0.0015905
     -0.0014722
     -0.0013715
     -0.0012905
     -0.0012309
     -0.0011943
     -0.0011817
     -0.0011940
     -0.0012317
     -0.0012949
     -0.0013835
     -0.0014967
     -0.0016336
     -0.0017929
     -0.0019731
     -0.0021722
     -0.0023882
     -0.0026188
     -0.0028616
     -0.0031139
     -0.0033734
     -0.0036373
     -0.0039032
     -0.0041687
     -0.0044315
     -0.0046894
     -0.0049405
     -0.0051830
     -0.0054153
     -0.0056362
     -0.0058445
     -0.0060394
     -0.0062200
     -0.0063860
     -0.0065369
     -0.0066725
     -0.0067927
     -0.0068975
     -0.0069870
     -0.0070614
     -0.0071209
     -0.0071656
     -0.0071959
     -0.0072120
     -0.0072141
     -0.0072028
     -0.0071786
     -0.0071359
     -0.0070671
      0.0000929
      0.0001039
      0.0001009
      0.0000867
      0.0000639
      0.0000329
     -0.0000056
     -0.0000511
     -0.0001029
     -0.0001605
     -0.0002236
     -0.0002917
     -0.0003645
     -0.0004417
     -0.0005231
     -0.0006086
     -0.0006980
     -0.0007911
     -0.0008880
     -0.0009885
     -0.0010926
     -0.0012002
     -0.0013112
     -0.0014256
     -0.0015432
     -0.0016638
     -0.0017873
     -0.0019135
     -0.0020420
     -0.0021726
     -0.0023048
     -0.0024383
     -0.0025726
     -0.0027070
     -0.0028410
     -0.0029740
     -0.0031051
     -0.0032336
     -0.0033586
     -0.0034793
     -0.0035947
     -0.0037037
     -0.0038055
     -0.0038990
     -0.0039831
     -0.0040569
     -0.0041194
     -0.0041696
     -0.0042066
     -0.0042298
     -0.0042383
     -0.0042317
     -0.0042096
     -0.0041716
     -0.0041178
     -0.0040482
     -0.0039632
     -0.0038633
     -0.0037494
     -0.0036224
     -0.0034836
     -0.0033346
     -0.0031768
     -0.0030124
     -0.0028434
     -0.0026720
     -0.0025006
     -0.0023317
     -0.0021678
     -0.0020116
     -0.0018656
     -0.0017322
     -0.0016139
     -0.0015129
     -0.0014312
     -0.0013707
     -0.0013328
     -0.0013187
     -0.0013294
     -0.0013654
     -0.0014267
     -0.0015133
     -0.0016244
     -0.0017592
     -0.0019164
     -0.0020943
     -0.0022911
     -0.0025046
     -0.0027326
     -0.0029725
     -0.0032219
     -0.0034782
     -0.0037387
     -0.0040010
     -0.0042626
     -0.0045212
     -0.0047747
     -0.0050211
     -0.0052587
     -0.0054861
     -0.0057019
     -0.0059050
     -0.0060947
     -0.0062703
     -0.0064314
     -0.0065776
     -0.0067089
     -0.0068253
     -0.0069267
     -0.0070134
     -0.0070855
     -0.0071432
     -0.0071868
     -0.0072163
     -0.0072317
     -0.0072332
     -0.0072207
     -0.0071946
     -0.0071481
     -0.0070724
      0.0001539
      0.0001587
      0.0001512
      0.0001338
      0.0001083
      0.0000754
      0.0000357
     -0.0000102
     -0.0000619
     -0.0001190
     -0.0001809
     -0.0002475
     -0.0003184
     -0.0003934
     -0.0004725
     -0.0005555
     -0.0006423
     -0.0007328
     -0.0008271
     -0.0009251
     -0.0010268
     -0.0011321
     -0.0012411
     -0.0013537
     -0.0014697
     -0.0015892
     -0.0017119
     -0.0018376
     -0.0019662
     -0.0020974
     -0.0022307
     -0.0023658
     -0.0025022
     -0.0026394
     -0.0027769
     -0.0029139
     -0.0030497
     -0.0031835
     -0.0033145
     -0.0034417
     -0.0035642
     -0.0036810
     -0.0037910
     -0.0038931
     -0.0039863
     -0.0040695
     -0.0041417
     -0.0042018
     -0.0042489
     -0.0042822
     -0.0043008
     -0.0043042
     -0.0042918
     -0.0042634
     -0.0042187
     -0.0041579
     -0.0040812
     -0.0039890
     -0.0038823
     -0.0037618
     -0.0036289
     -0.0034850
     -0.0033318
     -0.0031711
     -0.0030050
     -0.0028359
     -0.0026661
     -0.0024980
     -0.0023344
     -0.0021779
     -0.0020309
     -0.0018962
     -0.0017760
     -0.0016728
     -0.0015886
     -0.0015253
     -0.0014844
     -0.0014673
     -0.0014748
     -0.0015076
     -0.0015658
     -0.0016493
     -0.0017574
     -0.0018893
     -0.0020437
     -0.0022189
     -0.0024131
     -0.0026241
     -0.0028495
     -0.0030870
     -0.0033338
     -0.0035874
     -0.0038452
     -0.0041046
     -0.0043631
     -0.0046184
     -0.0048683
     -0.0051110
     -0.0053447
     -0.0055680
     -0.0057795
     -0.0059783
     -0.0061635
     -0.0063347
     -0.0064915
     -0.0066336
     -0.0067610
     -0.0068738
     -0.0069721
     -0.0070561
     -0.0071259
     -0.0071819
     -0.0072241
     -0.0072526
     -0.0072673
     -0.0072680
     -0.0072545
     -0.0072270
     -0.0071780
     -0.0070980
      0.0002266
      0.0002237
      0.0002106
      0.0001891
      0.0001604
      0.0001250
      0.0000836
      0.0000366
     -0.0000155
     -0.0000723
     -0.0001335
     -0.0001990
     -0.0002684
     -0.0003418
     -0.0004190
     -0.0004999
     -0.0005846
     -0.0006731
     -0.0007653
     -0.0008614
     -0.0009614
     -0.0010652
     -0.0011729
     -0.0012845
     -0.0014000
     -0.0015193
     -0.0016423
     -0.0017688
     -0.0018987
     -0.0020317
     -0.0021675
     -0.0023057
     -0.0024460
     -0.0025877
     -0.0027303
     -0.0028731
     -0.0030155
     -0.0031565
     -0.0032954
     -0.0034311
     -0.0035627
     -0.0036891
     -0.0038092
     -0.0039219
     -0.0040259
     -0.0041203
     -0.0042038
     -0.0042753
     -0.0043339
     -0.0043785
     -0.0044084
     -0.0044227
     -0.0044209
     -0.0044026
     -0.0043676
     -0.0043158
     -0.0042475
     -0.0041631
     -0.0040632
     -0.0039489
     -0.0038213
     -0.0036818
     -0.0035321
     -0.0033741
     -0.0032098
     -0.0030416
     -0.0028719
     -0.0027032
     -0.0025381
     -0.0023794
     -0.0022297
     -0.0020916
     -0.0019676
     -0.0018601
     -0.0017714
     -0.0017033
     -0.0016574
     -0.0016353
     -0.0016378
     -0.0016656
     -0.0017190
     -0.0017979
     -0.0019016
     -0.0020293
     -0.0021798
     -0.0023514
     -0.0025422
     -0.0027500
     -0.0029726
     -0.0032073
     -0.0034515
     -0.0037026
     -0.0039578
     -0.0042146
     -0.0044705
     -0.0047231
     -0.0049702
     -0.0052098
     -0.0054403
     -0.0056602
     -0.0058681
     -0.0060633
     -0.0062448
     -0.0064123
     -0.0065653
     -0.0067038
     -0.0068278
     -0.0069374
     -0.0070328
     -0.0071143
     -0.0071820
     -0.0072363
     -0.0072772
     -0.0073048
     -0.0073188
     -0.0073189
     -0.0073049
     -0.0072766
     -0.0072265
     -0.0071447
      0.0003098
      0.0002978
      0.0002782
      0.0002519
      0.0002192
      0.0001808
      0.0001371
      0.0000887
      0.0000359
     -0.0000211
     -0.0000821
     -0.0001469
     -0.0002153
     -0.0002874
     -0.0003632
     -0.0004426
     -0.0005258
     -0.0006128
     -0.0007037
     -0.0007986
     -0.0008975
     -0.0010007
     -0.0011080
     -0.0012197
     -0.0013357
     -0.0014559
     -0.0015805
     -0.0017091
     -0.0018418
     -0.0019782
     -0.0021181
     -0.0022612
     -0.0024071
     -0.0025552
     -0.0027049
     -0.0028556
     -0.0030066
     -0.0031570
     -0.0033059
     -0.0034523
     -0.0035951
     -0.0037333
     -0.0038656
     -0.0039909
     -0.0041078
     -0.0042152
     -0.0043119
     -0.0043965
     -0.0044681
     -0.0045256
     -0.0045679
     -0.0045943
     -0.0046041
     -0.0045968
     -0.0045721
     -0.0045298
     -0.0044703
     -0.0043937
     -0.0043008
     -0.0041924
     -0.0040696
     -0.0039340
     -0.0037871
     -0.0036308
     -0.0034673
     -0.0032987
     -0.0031277
     -0.0029568
     -0.0027886
     -0.0026259
     -0.0024715
     -0.0023280
     -0.0021981
     -0.0020842
     -0.0019886
     -0.0019134
     -0.0018604
     -0.0018309
     -0.0018261
     -0.0018468
     -0.0018932
     -0.0019654
     -0.0020628
     -0.0021846
     -0.0023295
     -0.0024960
     -0.0026822
     -0.0028858
     -0.0031045
     -0.0033357
     -0.0035768
     -0.0038250
     -0.0040775
     -0.0043318
     -0.0045851
     -0.0048352
     -0.0050798
     -0.0053169
     -0.0055447
     -0.0057617
     -0.0059668
     -0.0061589
     -0.0063374
     -0.0065017
     -0.0066516
     -0.0067871
     -0.0069081
     -0.0070150
     -0.0071079
     -0.0071872
     -0.0072531
     -0.0073059
     -0.0073457
     -0.0073725
     -0.0073861
     -0.0073861
     -0.0073721
     -0.0073439
     -0.0072939
     -0.0072125
      0.0004019
      0.0003797
      0.0003528
      0.0003210
      0.0002838
      0.0002419
      0.0001956
      0.0001454
      0.0000914
      0.0000338
     -0.0000273
     -0.0000918
     -0.0001597
     -0.0002310
     -0.0003059
     -0.0003844
     -0.0004667
     -0.0005529
     -0.0006431
     -0.0007376
     -0.0008365
     -0.0009400
     -0.0010481
     -0.0011609
     -0.0012787
     -0.0014013
     -0.0015288
     -0.0016611
     -0.0017982
     -0.0019398
     -0.0020858
     -0.0022357
     -0.0023892
     -0.0025457
     -0.0027048
     -0.0028657
     -0.0030276
     -0.0031897
     -0.0033510
     -0.0035104
     -0.0036669
     -0.0038192
     -0.0039660
     -0.0041061
     -0.0042381
     -0.0043607
     -0.0044725
     -0.0045722
     -0.0046586
     -0.0047305
     -0.0047868
     -0.0048266
     -0.0048492
     -0.0048540
     -0.0048404
     -0.0048085
     -0.0047582
     -0.0046898
     -0.0046040
     -0.0045015
     -0.0043834
     -0.0042513
     -0.0041066
     -0.0039513
     -0.0037875
     -0.0036176
     -0.0034439
     -0.0032692
     -0.0030962
     -0.0029277
     -0.0027666
     -0.0026156
     -0.0024774
     -0.0023547
     -0.0022498
     -0.0021649
     -0.0021020
     -0.0020625
     -0.0020478
     -0.0020586
     -0.0020955
     -0.0021585
     -0.0022471
     -0.0023606
     -0.0024979
     -0.0026572
     -0.0028369
     -0.0030346
     -0.0032481
     -0.0034746
     -0.0037115
     -0.0039560
     -0.0042052
     -0.0044565
     -0.0047071
     -0.0049547
     -0.0051968
     -0.0054315
     -0.0056570
     -0.0058717
     -0.0060743
     -0.0062640
     -0.0064399
     -0.0066017
     -0.0067491
     -0.0068821
     -0.0070008
     -0.0071054
     -0.0071963
     -0.0072738
     -0.0073383
     -0.0073900
     -0.0074291
     -0.0074555
     -0.0074691
     -0.0074693
     -0.0074559
     -0.0074287
     -0.0073801
     -0.0073010
      0.0005015
      0.0004681
      0.0004332
      0.0003953
      0.0003532
      0.0003073
      0.0002580
      0.0002056
      0.0001501
      0.0000916
      0.0000300
     -0.0000346
     -0.0001023
     -0.0001734
     -0.0002480
     -0.0003262
     -0.0004083
     -0.0004945
     -0.0005850
     -0.0006801
     -0.0007799
     -0.0008848
     -0.0009948
     -0.0011102
     -0.0012311
     -0.0013576
     -0.0014898
     -0.0016276
     -0.0017709
     -0.0019197
     -0.0020737
     -0.0022326
     -0.0023960
     -0.0025635
     -0.0027343
     -0.0029078
     -0.0030832
     -0.0032596
     -0.0034359
     -0.0036110
     -0.0037837
     -0.0039527
     -0.0041166
     -0.0042740
     -0.0044235
     -0.0045635
     -0.0046927
     -0.0048095
     -0.0049127
     -0.0050009
     -0.0050730
     -0.0051279
     -0.0051647
     -0.0051828
     -0.0051816
     -0.0051608
     -0.0051206
     -0.0050610
     -0.0049826
     -0.0048862
     -0.0047730
     -0.0046441
     -0.0045013
     -0.0043464
     -0.0041815
     -0.0040090
     -0.0038315
     -0.0036515
     -0.0034720
     -0.0032958
     -0.0031258
     -0.0029650
     -0.0028161
     -0.0026819
     -0.0025649
     -0.0024675
     -0.0023916
     -0.0023391
     -0.0023113
     -0.0023092
     -0.0023334
     -0.0023840
     -0.0024609
     -0.0025632
     -0.0026900
     -0.0028397
     -0.0030104
     -0.0032001
     -0.0034063
     -0.0036264
     -0.0038576
     -0.0040970
     -0.0043419
     -0.0045893
     -0.0048366
     -0.0050813
     -0.0053208
     -0.0055531
     -0.0057763
     -0.0059889
     -0.0061895
     -0.0063772
     -0.0065511
     -0.0067109
     -0.0068564
     -0.0069875
     -0.0071044
     -0.0072074
     -0.0072969
     -0.0073732
     -0.0074367
     -0.0074877
     -0.0075265
     -0.0075530
     -0.0075671
     -0.0075683
     -0.0075562
     -0.0075307
     -0.0074846
     -0.0074093
      0.0006069
      0.0005615
      0.0005179
      0.0004736
      0.0004260
      0.0003758
      0.0003233
      0.0002684
      0.0002111
      0.0001513
      0.0000889
      0.0000238
     -0.0000444
     -0.0001158
     -0.0001906
     -0.0002693
     -0.0003519
     -0.0004390
     -0.0005307
     -0.0006274
     -0.0007294
     -0.0008370
     -0.0009503
     -0.0010698
     -0.0011955
     -0.0013276
     -0.0014662
     -0.0016114
     -0.0017632
     -0.0019213
     -0.0020857
     -0.0022561
     -0.0024319
     -0.0026128
     -0.0027981
     -0.0029870
     -0.0031786
     -0.0033721
     -0.0035662
     -0.0037598
     -0.0039515
     -0.0041400
     -0.0043237
     -0.0045011
     -0.0046706
     -0.0048307
     -0.0049797
     -0.0051160
     -0.0052383
     -0.0053449
     -0.0054347
     -0.0055065
     -0.0055593
     -0.0055922
     -0.0056047
     -0.0055964
     -0.0055672
     -0.0055173
     -0.0054471
     -0.0053573
     -0.0052489
     -0.0051234
     -0.0049822
     -0.0048272
     -0.0046606
     -0.0044846
     -0.0043020
     -0.0041154
     -0.0039276
     -0.0037417
     -0.0035607
     -0.0033876
     -0.0032253
     -0.0030767
     -0.0029446
     -0.0028313
     -0.0027392
     -0.0026701
     -0.0026256
     -0.0026069
     -0.0026148
     -0.0026495
     -0.0027110
     -0.0027987
     -0.0029117
     -0.0030485
     -0.0032073
     -0.0033861
     -0.0035824
     -0.0037937
     -0.0040171
     -0.0042498
     -0.0044888
     -0.0047312
     -0.0049741
     -0.0052151
     -0.0054514
     -0.0056811
     -0.0059020
     -0.0061125
     -0.0063113
     -0.0064972
     -0.0066697
     -0.0068280
     -0.0069722
     -0.0071020
     -0.0072178
     -0.0073198
     -0.0074084
     -0.0074841
     -0.0075473
     -0.0075983
     -0.0076373
     -0.0076645
     -0.0076796
     -0.0076823
     -0.0076723
     -0.0076492
     -0.0076067
     -0.0075364
      0.0007166
      0.0006583
      0.0006055
      0.0005542
      0.0005010
      0.0004462
      0.0003901
      0.0003325
      0.0002731
      0.0002117
      0.0001481
      0.0000820
      0.0000130
     -0.0000593
     -0.0001351
     -0.0002149
     -0.0002991
     -0.0003880
     -0.0004820
     -0.0005815
     -0.0006870
     -0.0007986
     -0.0009169
     -0.0010420
     -0.0011743
     -0.0013140
     -0.0014612
     -0.0016160
     -0.0017784
     -0.0019484
     -0.0021257
     -0.0023101
     -0.0025012
     -0.0026983
     -0.0029009
     -0.0031081
     -0.0033191
     -0.0035327
     -0.0037477
     -0.0039628
     -0.0041766
     -0.0043876
     -0.0045941
     -0.0047944
     -0.0049869
     -0.0051697
     -0.0053412
     -0.0054997
     -0.0056434
     -0.0057709
     -0.0058807
     -0.0059715
     -0.0060421
     -0.0060918
     -0.0061196
     -0.0061252
     -0.0061084
     -0.0060693
     -0.0060081