# vtk DataFile Version 2.0
pressures
ASCII
DATASET RECTILINEAR_GRID
DIMENSIONS  120  120    1
X_COORDINATES 120 float
      0.0041667
      0.0125000
      0.0208333
      0.0291667
      0.0375000
      0.0458333
      0.0541667
      0.0625000
      0.0708333
      0.0791667
      0.0875000
      0.0958333
      0.1041667
      0.1125000
      0.1208333
      0.1291667
      0.1375000
      0.1458333
      0.1541667
      0.1625000
      0.1708333
      0.1791667
      0.1875000
      0.1958333
      0.2041667
      0.2125000
      0.2208333
      0.2291667
      0.2375000
      0.2458333
      0.2541667
      0.2625000
      0.2708333
      0.2791667
      0.2875000
      0.2958333
      0.3041667
      0.3125000
      0.3208333
      0.3291667
      0.3375000
      0.3458333
      0.3541667
      0.3625000
      0.3708333
      0.3791667
      0.3875000
      0.3958333
      0.4041667
      0.4125000
      0.4208333
      0.4291667
      0.4375000
      0.4458333
      0.4541667
      0.4625000
      0.4708333
      0.4791667
      0.4875000
      0.4958333
      0.5041667
      0.5125000
      0.5208333
      0.5291667
      0.5375000
      0.5458333
      0.5541667
      0.5625000
      0.5708333
      0.5791667
      0.5875000
      0.5958333
      0.6041667
      0.6125000
      0.6208333
      0.6291667
      0.6375000
      0.6458333
      0.6541667
      0.6625000
      0.6708333
      0.6791667
      0.6875000
      0.6958333
      0.7041667
      0.7125000
      0.7208333
      0.7291667
      0.7375000
      0.7458333
      0.7541667
      0.7625000
      0.7708333
      0.7791667
      0.7875000
      0.7958333
      0.8041667
      0.8125000
      0.8208333
      0.8291667
      0.8375000
      0.8458333
      0.8541667
      0.8625000
      0.8708333
      0.8791667
      0.8875000
      0.8958333
      0.9041667
      0.9125000
      0.9208333
      0.9291667
      0.9375000
      0.9458333
      0.9541667
      0.9625000
      0.9708333
      0.9791667
      0.9875000
      0.9958333
Y_COORDINATES 120 float
      0.0041667
      0.0125000
      0.0208333
      0.0291667
      0.0375000
      0.0458333
      0.0541667
      0.0625000
      0.0708333
      0.0791667
      0.0875000
      0.0958333
      0.1041667
      0.1125000
      0.1208333
      0.1291667
      0.1375000
      0.1458333
      0.1541667
      0.1625000
      0.1708333
      0.1791667
      0.1875000
      0.1958333
      0.2041667
      0.2125000
      0.2208333
      0.2291667
      0.2375000
      0.2458333
      0.2541667
      0.2625000
      0.2708333
      0.2791667
      0.2875000
      0.2958333
      0.3041667
      0.3125000
      0.3208333
      0.3291667
      0.3375000
      0.3458333
      0.3541667
      0.3625000
      0.3708333
      0.3791667
      0.3875000
      0.3958333
      0.4041667
      0.4125000
      0.4208333
      0.4291667
      0.4375000
      0.4458333
      0.4541667
      0.4625000
      0.4708333
      0.4791667
      0.4875000
      0.4958333
      0.5041667
      0.5125000
      0.5208333
      0.5291667
      0.5375000
      0.5458333
      0.5541667
      0.5625000
      0.5708333
      0.5791667
      0.5875000
      0.5958333
      0.6041667
      0.6125000
      0.6208333
      0.6291667
      0.6375000
      0.6458333
      0.6541667
      0.6625000
      0.6708333
      0.6791667
      0.6875000
      0.6958333
      0.7041667
      0.7125000
      0.7208333
      0.7291667
      0.7375000
      0.7458333
      0.7541667
      0.7625000
      0.7708333
      0.7791667
      0.7875000
      0.7958333
      0.8041667
      0.8125000
      0.8208333
      0.8291667
      0.8375000
      0.8458333
      0.8541667
      0.8625000
      0.8708333
      0.8791667
      0.8875000
      0.8958333
      0.9041667
      0.9125000
      0.9208333
      0.9291667
      0.9375000
      0.9458333
      0.9541667
      0.9625000
      0.9708333
      0.9791667
      0.9875000
      0.9958333
Z_COORDINATES   1 float
      0.0000000
POINT_DATA 14400
SCALARS pressure float 1
LOOKUP_TABLE default
     -0.0000085
      0.0000092
      0.0000168
      0.0000115
     -0.0000069
     -0.0000381
     -0.0000812
     -0.0001350
     -0.0001982
     -0.0002696
     -0.0003483
     -0.0004332
     -0.0005237
     -0.0006192
     -0.0007192
     -0.0008232
     -0.0009311
     -0.0010426
     -0.0011575
     -0.0012756
     -0.0013968
     -0.0015209
     -0.0016478
     -0.0017772
     -0.0019091
     -0.0020430
     -0.0021786
     -0.0023157
     -0.0024537
     -0.0025923
     -0.0027307
     -0.0028685
     -0.0030050
     -0.0031395
     -0.0032711
     -0.0033990
     -0.0035224
     -0.0036404
     -0.0037519
     -0.0038560
     -0.0039516
     -0.0040378
     -0.0041135
     -0.0041778
     -0.0042296
     -0.0042680
     -0.0042922
     -0.0043014
     -0.0042949
     -0.0042720
     -0.0042325
     -0.0041760
     -0.0041023
     -0.0040115
     -0.0039040
     -0.0037800
     -0.0036404
     -0.0034860
     -0.0033180
     -0.0031377
     -0.0029467
     -0.0027468
     -0.0025400
     -0.0023285
     -0.0021146
     -0.0019009
     -0.0016900
     -0.0014844
     -0.0012870
     -0.0011004
     -0.0009274
     -0.0007704
     -0.0006319
     -0.0005141
     -0.0004192
     -0.0003490
     -0.0003048
     -0.0002879
     -0.0002991
     -0.0003389
     -0.0004074
     -0.0005043
     -0.0006288
     -0.0007801
     -0.0009567
     -0.0011569
     -0.0013787
     -0.0016200
     -0.0018782
     -0.0021508
     -0.0024350
     -0.0027281
     -0.0030274
     -0.0033299
     -0.0036331
     -0.0039344
     -0.0042312
     -0.0045213
     -0.0048026
     -0.0050732
     -0.0053315
     -0.0055759
     -0.0058051
     -0.0060181
     -0.0062140
     -0.0063920
     -0.0065514
     -0.0066918
     -0.0068128
     -0.0069140
     -0.0069951
     -0.0070562
     -0.0070973
     -0.0071188
     -0.0071215
     -0.0071073
     -0.0070791
     -0.0070423
     -0.0070050
     -0.0069799
     -0.0000142
      0.0000010
      0.0000043
     -0.0000034
     -0.0000220
     -0.0000515
     -0.0000915
     -0.0001410
     -0.0001994
     -0.0002655
     -0.0003386
     -0.0004179
     -0.0005027
     -0.0005926
     -0.0006870
     -0.0007857
     -0.0008882
     -0.0009944
     -0.0011040
     -0.0012169
     -0.0013330
     -0.0014519
     -0.0015736
     -0.0016979
     -0.0018246
     -0.0019533
     -0.0020838
     -0.0022157
     -0.0023486
     -0.0024820
     -0.0026156
     -0.0027486
     -0.0028804
     -0.0030104
     -0.0031379
     -0.0032621
     -0.0033820
     -0.0034970
     -0.0036060
     -0.0037081
     -0.0038024
     -0.0038879
     -0.0039637
     -0.0040287
     -0.0040821
     -0.0041231
     -0.0041507
     -0.0041642
     -0.0041630
     -0.0041465
     -0.0041142
     -0.0040660
     -0.0040016
     -0.0039211
     -0.0038248
     -0.0037130
     -0.0035863
     -0.0034457
     -0.0032921
     -0.0031269
     -0.0029515
     -0.0027677
     -0.0025772
     -0.0023823
     -0.0021850
     -0.0019878
     -0.0017930
     -0.0016033
     -0.0014212
     -0.0012493
     -0.0010900
     -0.0009458
     -0.0008190
     -0.0007117
     -0.0006260
     -0.0005634
     -0.0005253
     -0.0005130
     -0.0005271
     -0.0005681
     -0.0006361
     -0.0007307
     -0.0008514
     -0.0009972
     -0.0011668
     -0.0013585
     -0.0015705
     -0.0018007
     -0.0020468
     -0.0023063
     -0.0025767
     -0.0028553
     -0.0031396
     -0.0034269
     -0.0037148
     -0.0040006
     -0.0042823
     -0.0045576
     -0.0048245
     -0.0050814
     -0.0053265
     -0.0055585
     -0.0057763
     -0.0059787
     -0.0061650
     -0.0063345
     -0.0064867
     -0.0066210
     -0.0067372
     -0.0068352
     -0.0069148
     -0.0069760
     -0.0070193
     -0.0070453
     -0.0070549
     -0.0070499
     -0.0070330
     -0.0070084
     -0.0069805
     -0.0069555
     -0.0000168
      0.0000000
      0.0000024
     -0.0000063
     -0.0000249
     -0.0000534
     -0.0000914
     -0.0001383
     -0.0001934
     -0.0002558
     -0.0003249
     -0.0004000
     -0.0004805
     -0.0005660
     -0.0006560
     -0.0007502
     -0.0008483
     -0.0009501
     -0.0010553
     -0.0011639
     -0.0012756
     -0.0013902
     -0.0015076
     -0.0016276
     -0.0017500
     -0.0018745
     -0.0020009
     -0.0021287
     -0.0022576
     -0.0023872
     -0.0025170
     -0.0026465
     -0.0027751
     -0.0029021
     -0.0030268
     -0.0031485
     -0.0032665
     -0.0033798
     -0.0034877
     -0.0035892
     -0.0036834
     -0.0037694
     -0.0038462
     -0.0039130
     -0.0039688
     -0.0040129
     -0.0040443
     -0.0040623
     -0.0040664
     -0.0040558
     -0.0040303
     -0.0039895
     -0.0039332
     -0.0038614
     -0.0037744
     -0.0036725
     -0.0035563
     -0.0034265
     -0.0032842
     -0.0031306
     -0.0029671
     -0.0027952
     -0.0026168
     -0.0024339
     -0.0022486
     -0.0020631
     -0.0018799
     -0.0017013
     -0.0015298
     -0.0013680
     -0.0012181
     -0.0010827
     -0.0009638
     -0.0008636
     -0.0007840
     -0.0007266
     -0.0006927
     -0.0006834
     -0.0006996
     -0.0007415
     -0.0008092
     -0.0009026
     -0.0010209
     -0.0011632
     -0.0013283
     -0.0015145
     -0.0017201
     -0.0019430
     -0.0021811
     -0.0024318
     -0.0026929
     -0.0029616
     -0.0032356
     -0.0035123
     -0.0037894
     -0.0040643
     -0.0043351
     -0.0045996
     -0.0048559
     -0.0051024
     -0.0053376
     -0.0055602
     -0.0057690
     -0.0059632
     -0.0061420
     -0.0063047
     -0.0064509
     -0.0065803
     -0.0066926
     -0.0067878
     -0.0068658
     -0.0069268
     -0.0069713
     -0.0069997
     -0.0070131
     -0.0070128
     -0.0070010
     -0.0069806
     -0.0069528
     -0.0069185
     -0.0000090
      0.0000094
      0.0000116
      0.0000024
     -0.0000163
     -0.0000444
     -0.0000813
     -0.0001266
     -0.0001794
     -0.0002391
     -0.0003052
     -0.0003770
     -0.0004540
     -0.0005359
     -0.0006222
     -0.0007126
     -0.0008068
     -0.0009048
     -0.0010062
     -0.0011109
     -0.0012187
     -0.0013296
     -0.0014432
     -0.0015596
     -0.0016783
     -0.0017993
     -0.0019222
     -0.0020468
     -0.0021726
     -0.0022992
     -0.0024263
     -0.0025533
     -0.0026796
     -0.0028047
     -0.0029278
     -0.0030483
     -0.0031654
     -0.0032784
     -0.0033864
     -0.0034884
     -0.0035837
     -0.0036714
     -0.0037504
     -0.0038200
     -0.0038792
     -0.0039272
     -0.0039631
     -0.0039863
     -0.0039960
     -0.0039917
     -0.0039729
     -0.0039392
     -0.0038906
     -0.0038269
     -0.0037484
     -0.0036552
     -0.0035480
     -0.0034275
     -0.0032945
     -0.0031504
     -0.0029963
     -0.0028338
     -0.0026648
     -0.0024910
     -0.0023146
     -0.0021378
     -0.0019628
     -0.0017922
     -0.0016282
     -0.0014733
     -0.0013299
     -0.0012003
     -0.0010868
     -0.0009913
     -0.0009157
     -0.0008616
     -0.0008304
     -0.0008231
     -0.0008405
     -0.0008829
     -0.0009506
     -0.0010430
     -0.0011598
     -0.0012999
     -0.0014620
     -0.0016446
     -0.0018460
     -0.0020641
     -0.0022967
     -0.0025415
     -0.0027961
     -0.0030581
     -0.0033248
     -0.0035939
     -0.0038631
     -0.0041301
     -0.0043927
     -0.0046489
     -0.0048971
     -0.0051355
     -0.0053628
     -0.0055777
     -0.0057793
     -0.0059666
     -0.0061390
     -0.0062960
     -0.0064371
     -0.0065622
     -0.0066710
     -0.0067635
     -0.0068398
     -0.0069002
     -0.0069448
     -0.0069743
     -0.0069894
     -0.0069910
     -0.0069807
     -0.0069603
     -0.0069284
     -0.0068818
      0.0000117
      0.0000296
      0.0000309
      0.0000207
      0.0000014
     -0.0000267
     -0.0000631
     -0.0001072
     -0.0001584
     -0.0002160
     -0.0002796
     -0.0003485
     -0.0004225
     -0.0005011
     -0.0005839
     -0.0006708
     -0.0007615
     -0.0008558
     -0.0009536
     -0.0010547
     -0.0011589
     -0.0012662
     -0.0013765
     -0.0014894
     -0.0016049
     -0.0017228
     -0.0018427
     -0.0019645
     -0.0020877
     -0.0022121
     -0.0023371
     -0.0024623
     -0.0025872
     -0.0027112
     -0.0028337
     -0.0029540
     -0.0030714
     -0.0031850
     -0.0032942
     -0.0033980
     -0.0034955
     -0.0035860
     -0.0036684
     -0.0037419
     -0.0038055
     -0.0038585
     -0.0038999
     -0.0039291
     -0.0039453
     -0.0039479
     -0.0039364
     -0.0039104
     -0.0038697
     -0.0038142
     -0.0037441
     -0.0036594
     -0.0035608
     -0.0034489
     -0.0033246
     -0.0031889
     -0.0030432
     -0.0028889
     -0.0027278
     -0.0025617
     -0.0023926
     -0.0022226
     -0.0020542
     -0.0018896
     -0.0017312
     -0.0015815
     -0.0014427
     -0.0013173
     -0.0012074
     -0.0011150
     -0.0010420
     -0.0009900
     -0.0009604
     -0.0009542
     -0.0009722
     -0.0010148
     -0.0010820
     -0.0011736
     -0.0012890
     -0.0014273
     -0.0015872
     -0.0017671
     -0.0019653
     -0.0021797
     -0.0024083
     -0.0026486
     -0.0028983
     -0.0031549
     -0.0034160
     -0.0036791
     -0.0039420
     -0.0042024
     -0.0044583
     -0.0047077
     -0.0049489
     -0.0051804
     -0.0054008
     -0.0056090
     -0.0058040
     -0.0059851
     -0.0061517
     -0.0063033
     -0.0064396
     -0.0065604
     -0.0066658
     -0.0067556
     -0.0068300
     -0.0068893
     -0.0069335
     -0.0069633
     -0.0069790
     -0.0069812
     -0.0069708
     -0.0069491
     -0.0069121
     -0.0068542
      0.0000457
      0.0000611
      0.0000603
      0.0000484
      0.0000280
     -0.0000008
     -0.0000372
     -0.0000808
     -0.0001308
     -0.0001869
     -0.0002484
     -0.0003151
     -0.0003864
     -0.0004621
     -0.0005419
     -0.0006256
     -0.0007130
     -0.0008040
     -0.0008985
     -0.0009963
     -0.0010973
     -0.0012014
     -0.0013086
     -0.0014186
     -0.0015313
     -0.0016466
     -0.0017642
     -0.0018838
     -0.0020052
     -0.0021280
     -0.0022518
     -0.0023762
     -0.0025006
     -0.0026246
     -0.0027475
     -0.0028688
     -0.0029875
     -0.0031031
     -0.0032148
     -0.0033216
     -0.0034227
     -0.0035172
     -0.0036043
     -0.0036829
     -0.0037522
     -0.0038113
     -0.0038594
     -0.0038955
     -0.0039190
     -0.0039293
     -0.0039257
     -0.0039078
     -0.0038754
     -0.0038283
     -0.0037665
     -0.0036902
     -0.0035999
     -0.0034961
     -0.0033796
     -0.0032516
     -0.0031132
     -0.0029659
     -0.0028113
     -0.0026513
     -0.0024879
     -0.0023233
     -0.0021596
     -0.0019993
     -0.0018447
     -0.0016982
     -0.0015623
     -0.0014393
     -0.0013313
     -0.0012404
     -0.0011686
     -0.0011173
     -0.0010881
     -0.0010819
     -0.0010996
     -0.0011416
     -0.0012079
     -0.0012984
     -0.0014124
     -0.0015490
     -0.0017069
     -0.0018846
     -0.0020803
     -0.0022920
     -0.0025174
     -0.0027544
     -0.0030004
     -0.0032530
     -0.0035098
     -0.0037683
     -0.0040263
     -0.0042816
     -0.0045320
     -0.0047758
     -0.0050113
     -0.0052369
     -0.0054514
     -0.0056538
     -0.0058431
     -0.0060186
     -0.0061799
     -0.0063266
     -0.0064584
     -0.0065753
     -0.0066773
     -0.0067644
     -0.0068367
     -0.0068945
     -0.0069380
     -0.0069674
     -0.0069829
     -0.0069849
     -0.0069737
     -0.0069500
     -0.0069083
     -0.0068412
      0.0000926
      0.0001036
      0.0000995
      0.0000852
      0.0000629
      0.0000329
     -0.0000041
     -0.0000477
     -0.0000972
     -0.0001521
     -0.0002122
     -0.0002769
     -0.0003460
     -0.0004192
     -0.0004964
     -0.0005773
     -0.0006618
     -0.0007499
     -0.0008415
     -0.0009364
     -0.0010346
     -0.0011360
     -0.0012406
     -0.0013482
     -0.0014588
     -0.0015721
     -0.0016881
     -0.0018063
     -0.0019267
     -0.0020489
     -0.0021725
     -0.0022971
     -0.0024223
     -0.0025474
     -0.0026721
     -0.0027955
     -0.0029171
     -0.0030360
     -0.0031516
     -0.0032628
     -0.0033690
     -0.0034691
     -0.0035622
     -0.0036474
     -0.0037237
     -0.0037902
     -0.0038461
     -0.0038903
     -0.0039221
     -0.0039409
     -0.0039460
     -0.0039368
     -0.0039131
     -0.0038745
     -0.0038212
     -0.0037532
     -0.0036708
     -0.0035747
     -0.0034655
     -0.0033443
     -0.0032123
     -0.0030709
     -0.0029217
     -0.0027665
     -0.0026074
     -0.0024464
     -0.0022858
     -0.0021281
     -0.0019755
     -0.0018306
     -0.0016957
     -0.0015733
     -0.0014655
     -0.0013744
     -0.0013020
     -0.0012500
     -0.0012197
     -0.0012123
     -0.0012286
     -0.0012690
     -0.0013337
     -0.0014224
     -0.0015346
     -0.0016692
     -0.0018251
     -0.0020007
     -0.0021942
     -0.0024035
     -0.0026265
     -0.0028609
     -0.0031040
     -0.0033536
     -0.0036071
     -0.0038622
     -0.0041164
     -0.0043677
     -0.0046139
     -0.0048532
     -0.0050840
     -0.0053048
     -0.0055144
     -0.0057117
     -0.0058961
     -0.0060668
     -0.0062234
     -0.0063656
     -0.0064933
     -0.0066066
     -0.0067053
     -0.0067897
     -0.0068599
     -0.0069161
     -0.0069584
     -0.0069870
     -0.0070020
     -0.0070032
     -0.0069909
     -0.0069653
     -0.0069200
     -0.0068461
      0.0001516
      0.0001565
      0.0001481
      0.0001306
      0.0001057
      0.0000738
      0.0000356
     -0.0000084
     -0.0000578
     -0.0001122
     -0.0001711
     -0.0002344
     -0.0003017
     -0.0003728
     -0.0004478
     -0.0005263
     -0.0006084
     -0.0006940
     -0.0007831
     -0.0008756
     -0.0009715
     -0.0010708
     -0.0011734
     -0.0012793
     -0.0013885
     -0.0015006
     -0.0016158
     -0.0017336
     -0.0018540
     -0.0019767
     -0.0021012
     -0.0022272
     -0.0023544
     -0.0024821
     -0.0026099
     -0.0027371
     -0.0028630
     -0.0029868
     -0.0031079
     -0.0032253
     -0.0033381
     -0.0034454
     -0.0035462
     -0.0036395
     -0.0037243
     -0.0037997
     -0.0038646
     -0.0039182
     -0.0039595
     -0.0039878
     -0.0040024
     -0.0040027
     -0.0039882
     -0.0039587
     -0.0039141
     -0.0038544
     -0.0037800
     -0.0036912
     -0.0035889
     -0.0034740
     -0.0033476
     -0.0032112
     -0.0030663
     -0.0029148
     -0.0027586
     -0.0025999
     -0.0024409
     -0.0022841
     -0.0021319
     -0.0019868
     -0.0018513
     -0.0017276
     -0.0016182
     -0.0015252
     -0.0014506
     -0.0013960
     -0.0013631
     -0.0013529
     -0.0013664
     -0.0014039
     -0.0014658
     -0.0015517
     -0.0016612
     -0.0017932
     -0.0019465
     -0.0021197
     -0.0023108
     -0.0025178
     -0.0027385
     -0.0029705
     -0.0032113
     -0.0034584
     -0.0037093
     -0.0039616
     -0.0042129
     -0.0044610
     -0.0047038
     -0.0049396
     -0.0051666
     -0.0053834
     -0.0055889
     -0.0057821
     -0.0059622
     -0.0061287
     -0.0062812
     -0.0064195
     -0.0065435
     -0.0066533
     -0.0067490
     -0.0068308
     -0.0068989
     -0.0069534
     -0.0069945
     -0.0070222
     -0.0070364
     -0.0070369
     -0.0070237
     -0.0069967
     -0.0069487
     -0.0068706
      0.0002216
      0.0002189
      0.0002051
      0.0001836
      0.0001555
      0.0001213
      0.0000814
      0.0000364
     -0.0000134
     -0.0000675
     -0.0001258
     -0.0001880
     -0.0002539
     -0.0003234
     -0.0003965
     -0.0004731
     -0.0005532
     -0.0006368
     -0.0007240
     -0.0008146
     -0.0009089
     -0.0010067
     -0.0011081
     -0.0012131
     -0.0013216
     -0.0014336
     -0.0015489
     -0.0016675
     -0.0017890
     -0.0019134
     -0.0020402
     -0.0021691
     -0.0022997
     -0.0024316
     -0.0025641
     -0.0026967
     -0.0028286
     -0.0029592
     -0.0030876
     -0.0032129
     -0.0033341
     -0.0034504
     -0.0035607
     -0.0036638
     -0.0037589
     -0.0038447
     -0.0039203
     -0.0039846
     -0.0040367
     -0.0040757
     -0.0041009
     -0.0041115
     -0.0041071
     -0.0040872
     -0.0040518
     -0.0040007
     -0.0039343
     -0.0038529
     -0.0037572
     -0.0036482
     -0.0035269
     -0.0033947
     -0.0032533
     -0.0031044
     -0.0029500
     -0.0027923
     -0.0026335
     -0.0024762
     -0.0023227
     -0.0021757
     -0.0020376
     -0.0019110
     -0.0017981
     -0.0017012
     -0.0016224
     -0.0015635
     -0.0015261
     -0.0015113
     -0.0015202
     -0.0015532
     -0.0016107
     -0.0016924
     -0.0017978
     -0.0019261
     -0.0020759
     -0.0022457
     -0.0024338
     -0.0026380
     -0.0028560
     -0.0030855
     -0.0033239
     -0.0035687
     -0.0038172
     -0.0040672
     -0.0043160
     -0.0045615
     -0.0048016
     -0.0050345
     -0.0052585
     -0.0054721
     -0.0056742
     -0.0058639
     -0.0060404
     -0.0062033
     -0.0063523
     -0.0064871
     -0.0066079
     -0.0067147
     -0.0068077
     -0.0068872
     -0.0069532
     -0.0070061
     -0.0070460
     -0.0070728
     -0.0070864
     -0.0070864
     -0.0070725
     -0.0070448
     -0.0069957
     -0.0069157
      0.0003012
      0.0002898
      0.0002697
      0.0002436
      0.0002117
      0.0001745
      0.0001325
      0.0000861
      0.0000356
     -0.0000188
     -0.0000768
     -0.0001383
     -0.0002032
     -0.0002715
     -0.0003433
     -0.0004184
     -0.0004970
     -0.0005792
     -0.0006650
     -0.0007545
     -0.0008478
     -0.0009450
     -0.0010460
     -0.0011510
     -0.0012599
     -0.0013728
     -0.0014895
     -0.0016099
     -0.0017340
     -0.0018614
     -0.0019920
     -0.0021254
     -0.0022612
     -0.0023989
     -0.0025381
     -0.0026779
     -0.0028179
     -0.0029572
     -0.0030949
     -0.0032301
     -0.0033619
     -0.0034891
     -0.0036108
     -0.0037258
     -0.0038329
     -0.0039310
     -0.0040189
     -0.0040956
     -0.0041600
     -0.0042111
     -0.0042480
     -0.0042701
     -0.0042766
     -0.0042672
     -0.0042416
     -0.0041996
     -0.0041415
     -0.0040676
     -0.0039785
     -0.0038751
     -0.0037586
     -0.0036301
     -0.0034914
     -0.0033443
     -0.0031906
     -0.0030327
     -0.0028728
     -0.0027135
     -0.0025572
     -0.0024065
     -0.0022641
     -0.0021325
     -0.0020141
     -0.0019113
     -0.0018262
     -0.0017608
     -0.0017166
     -0.0016951
     -0.0016973
     -0.0017238
     -0.0017748
     -0.0018504
     -0.0019501
     -0.0020729
     -0.0022177
     -0.0023829
     -0.0025668
     -0.0027671
     -0.0029817
     -0.0032080
     -0.0034436
     -0.0036857
     -0.0039319
     -0.0041794
     -0.0044260
     -0.0046692
     -0.0049070
     -0.0051375
     -0.0053589
     -0.0055699
     -0.0057693
     -0.0059561
     -0.0061297
     -0.0062896
     -0.0064356
     -0.0065676
     -0.0066856
     -0.0067898
     -0.0068804
     -0.0069578
     -0.0070221
     -0.0070737
     -0.0071125
     -0.0071386
     -0.0071518
     -0.0071516
     -0.0071377
     -0.0071100
     -0.0070610
     -0.0069813
      0.0003891
      0.0003679
      0.0003408
      0.0003094
      0.0002732
      0.0002326
      0.0001880
      0.0001399
      0.0000883
      0.0000334
     -0.0000247
     -0.0000859
     -0.0001503
     -0.0002178
     -0.0002887
     -0.0003630
     -0.0004407
     -0.0005221
     -0.0006073
     -0.0006964
     -0.0007895
     -0.0008869
     -0.0009885
     -0.0010946
     -0.0012051
     -0.0013200
     -0.0014395
     -0.0015633
     -0.0016914
     -0.0018236
     -0.0019597
     -0.0020994
     -0.0022422
     -0.0023878
     -0.0025356
     -0.0026849
     -0.0028350
     -0.0029851
     -0.0031344
     -0.0032818
     -0.0034263
     -0.0035668
     -0.0037020
     -0.0038309
     -0.0039521
     -0.0040645
     -0.0041667
     -0.0042575
     -0.0043359
     -0.0044007
     -0.0044509
     -0.0044857
     -0.0045044
     -0.0045064
     -0.0044914
     -0.0044592
     -0.0044099
     -0.0043438
     -0.0042615
     -0.0041638
     -0.0040518
     -0.0039267
     -0.0037902
     -0.0036441
     -0.0034903
     -0.0033311
     -0.0031688
     -0.0030060
     -0.0028452
     -0.0026892
     -0.0025405
     -0.0024018
     -0.0022758
     -0.0021648
     -0.0020710
     -0.0019966
     -0.0019433
     -0.0019125
     -0.0019054
     -0.0019228
     -0.0019651
     -0.0020322
     -0.0021237
     -0.0022389
     -0.0023767
     -0.0025354
     -0.0027134
     -0.0029084
     -0.0031182
     -0.0033403
     -0.0035721
     -0.0038109
     -0.0040540
     -0.0042989
     -0.0045430
     -0.0047839
     -0.0050195
     -0.0052478
     -0.0054671
     -0.0056759
     -0.0058730
     -0.0060575
     -0.0062288
     -0.0063863
     -0.0065299
     -0.0066595
     -0.0067753
     -0.0068774
     -0.0069662
     -0.0070419
     -0.0071049
     -0.0071554
     -0.0071935
     -0.0072193
     -0.0072324
     -0.0072326
     -0.0072193
     -0.0071925
     -0.0071448
     -0.0070670
      0.0004839
      0.0004520
      0.0004172
      0.0003799
      0.0003389
      0.0002945
      0.0002471
      0.0001969
      0.0001439
      0.0000881
      0.0000296
     -0.0000317
     -0.0000960
     -0.0001633
     -0.0002338
     -0.0003077
     -0.0003852
     -0.0004665
     -0.0005519
     -0.0006414
     -0.0007354
     -0.0008341
     -0.0009374
     -0.0010458
     -0.0011592
     -0.0012777
     -0.0014013
     -0.0015301
     -0.0016640
     -0.0018028
     -0.0019464
     -0.0020944
     -0.0022464
     -0.0024020
     -0.0025607
     -0.0027218
     -0.0028844
     -0.0030479
     -0.0032111
     -0.0033731
     -0.0035328
     -0.0036889
     -0.0038402
     -0.0039853
     -0.0041230
     -0.0042517
     -0.0043703
     -0.0044774
     -0.0045716
     -0.0046519
     -0.0047170
     -0.0047661
     -0.0047983
     -0.0048130
     -0.0048097
     -0.0047882
     -0.0047485
     -0.0046909
     -0.0046158
     -0.0045239
     -0.0044165
     -0.0042946
     -0.0041599
     -0.0040142
     -0.0038595
     -0.0036979
     -0.0035321
     -0.0033643
     -0.0031975
     -0.0030342
     -0.0028772
     -0.0027294
     -0.0025933
     -0.0024715
     -0.0023665
     -0.0022803
     -0.0022149
     -0.0021719
     -0.0021527
     -0.0021580
     -0.0021885
     -0.0022442
     -0.0023249
     -0.0024298
     -0.0025579
     -0.0027077
     -0.0028775
     -0.0030651
     -0.0032683
     -0.0034845
     -0.0037111
     -0.0039454
     -0.0041846
     -0.0044261
     -0.0046672
     -0.0049055
     -0.0051387
     -0.0053649
     -0.0055821
     -0.0057890
     -0.0059843
     -0.0061670
     -0.0063364
     -0.0064921
     -0.0066339
     -0.0067618
     -0.0068759
     -0.0069764
     -0.0070638
     -0.0071384
     -0.0072005
     -0.0072504
     -0.0072883
     -0.0073142
     -0.0073279
     -0.0073289
     -0.0073169
     -0.0072917
     -0.0072463
     -0.0071721
      0.0005840
      0.0005407
      0.0004975
      0.0004540
      0.0004078
      0.0003593
      0.0003087
      0.0002561
      0.0002014
      0.0001444
      0.0000851
      0.0000233
     -0.0000412
     -0.0001088
     -0.0001795
     -0.0002538
     -0.0003318
     -0.0004138
     -0.0005002
     -0.0005913
     -0.0006872
     -0.0007882
     -0.0008946
     -0.0010066
     -0.0011244
     -0.0012480
     -0.0013777
     -0.0015133
     -0.0016549
     -0.0018024
     -0.0019555
     -0.0021140
     -0.0022776
     -0.0024457
     -0.0026178
     -0.0027931
     -0.0029710
     -0.0031503
     -0.0033303
     -0.0035096
     -0.0036871
     -0.0038615
     -0.0040314
     -0.0041953
     -0.0043519
     -0.0044996
     -0.0046369
     -0.0047624
     -0.0048747
     -0.0049725
     -0.0050545
     -0.0051196
     -0.0051670
     -0.0051959
     -0.0052057
     -0.0051961
     -0.0051670
     -0.0051185
     -0.0050512
     -0.0049658
     -0.0048631
     -0.0047444
     -0.0046113
     -0.0044656
     -0.0043093
     -0.0041446
     -0.0039739
     -0.0037999
     -0.0036253
     -0.0034529
     -0.0032855
     -0.0031261
     -0.0029774
     -0.0028421
     -0.0027228
     -0.0026218
     -0.0025411
     -0.0024826
     -0.0024478
     -0.0024376
     -0.0024528
     -0.0024937
     -0.0025601
     -0.0026514
     -0.0027667
     -0.0029046
     -0.0030634
     -0.0032410
     -0.0034352
     -0.0036434
     -0.0038629
     -0.0040910
     -0.0043249
     -0.0045618
     -0.0047990
     -0.0050340
     -0.0052644
     -0.0054881
     -0.0057033
     -0.0059084
     -0.0061020
     -0.0062832
     -0.0064512
     -0.0066056
     -0.0067462
     -0.0068729
     -0.0069860
     -0.0070857
     -0.0071723
     -0.0072464
     -0.0073082
     -0.0073581
     -0.0073963
     -0.0074228
     -0.0074375
     -0.0074400
     -0.0074299
     -0.0074071
     -0.0073651
     -0.0072957
      0.0006878
      0.0006322
      0.0005802
      0.0005301
      0.0004784
      0.0004255
      0.0003715
      0.0003163
      0.0002596
      0.0002012
      0.0001407
      0.0000780
      0.0000127
     -0.0000556
     -0.0001272
     -0.0002025
     -0.0002818
     -0.0003655
     -0.0004539
     -0.0005475
     -0.0006465
     -0.0007513
     -0.0008622
     -0.0009794
     -0.0011032
     -0.0012338
     -0.0013713
     -0.0015158
     -0.0016673
     -0.0018256
     -0.0019907
     -0.0021623
     -0.0023400
     -0.0025232
     -0.0027114
     -0.0029039
     -0.0030997
     -0.0032979
     -0.0034973
     -0.0036969
     -0.0038951
     -0.0040907
     -0.0042820
     -0.0044676
     -0.0046459
     -0.0048151
     -0.0049738
     -0.0051203
     -0.0052530
     -0.0053706
     -0.0054716
     -0.0055549
     -0.0056194
     -0.0056642
     -0.0056887
     -0.0056925
     -0.0056753
     -0.0056372
     -0.0055786