# vtk DataFile Version 2.0
U V velocities
ASCII
DATASET RECTILINEAR_GRID
DIMENSIONS  120  120    1
X_COORDINATES 120 float
      0.0041667
      0.0125000
      0.0208333
      0.0291667
      0.0375000
      0.0458333
      0.0541667
      0.0625000
      0.0708333
      0.0791667
      0.0875000
      0.0958333
      0.1041667
      0.1125000
      0.1208333
      0.1291667
      0.1375000
      0.1458333
      0.1541667
      0.1625000
      0.1708333
      0.1791667
      0.1875000
      0.1958333
      0.2041667
      0.2125000
      0.2208333
      0.2291667
      0.2375000
      0.2458333
      0.2541667
      0.2625000
      0.2708333
      0.2791667
      0.2875000
      0.2958333
      0.3041667
      0.3125000
      0.3208333
      0.3291667
      0.3375000
      0.3458333
      0.3541667
      0.3625000
      0.3708333
      0.3791667
      0.3875000
      0.3958333
      0.4041667
      0.4125000
      0.4208333
      0.4291667
      0.4375000
      0.4458333
      0.4541667
      0.4625000
      0.4708333
      0.4791667
      0.4875000
      0.4958333
      0.5041667
      0.5125000
      0.5208333
      0.5291667
      0.5375000
      0.5458333
      0.5541667
      0.5625000
      0.5708333
      0.5791667
      0.5875000
      0.5958333
      0.6041667
      0.6125000
      0.6208333
      0.6291667
      0.6375000
      0.6458333
      0.6541667
      0.6625000
      0.6708333
      0.6791667
      0.6875000
      0.6958333
      0.7041667
      0.7125000
      0.7208333
      0.7291667
      0.7375000
      0.7458333
      0.7541667
      0.7625000
      0.7708333
      0.7791667
      0.7875000
      0.7958333
      0.8041667
      0.8125000
      0.8208333
      0.8291667
      0.8375000
      0.8458333
      0.8541667
      0.8625000
      0.8708333
      0.8791667
      0.8875000
      0.8958333
      0.9041667
      0.9125000
      0.9208333
      0.9291667
      0.9375000
      0.9458333
      0.9541667
      0.9625000
      0.9708333
      0.9791667
      0.9875000
      0.9958333
Y_COORDINATES 120 float
      0.0041667
      0.0125000
      0.0208333
      0.0291667
      0.0375000
      0.0458333
      0.0541667
      0.0625000
      0.0708333
      0.0791667
      0.0875000
      0.0958333
      0.1041667
      0.1125000
      0.1208333
      0.1291667
      0.1375000
      0.1458333
      0.1541667
      0.1625000
      0.1708333
      0.1791667
      0.1875000
      0.1958333
      0.2041667
      0.2125000
      0.2208333
      0.2291667
      0.2375000
      0.2458333
      0.2541667
      0.2625000
      0.2708333
      0.2791667
      0.2875000
      0.2958333
      0.3041667
      0.3125000
      0.3208333
      0.3291667
      0.3375000
      0.3458333
      0.3541667
      0.3625000
      0.3708333
      0.3791667
      0.3875000
      0.3958333
      0.4041667
      0.4125000
      0.4208333
      0.4291667
      0.4375000
      0.4458333
      0.4541667
      0.4625000
      0.4708333
      0.4791667
      0.4875000
      0.4958333
      0.5041667
      0.5125000
      0.5208333
      0.5291667
      0.5375000
      0.5458333
      0.5541667
      0.5625000
      0.5708333
      0.5791667
      0.5875000
      0.5958333
      0.6041667
      0.6125000
      0.6208333
      0.6291667
      0.6375000
      0.6458333
      0.6541667
      0.6625000
      0.6708333
      0.6791667
      0.6875000
      0.6958333
      0.7041667
      0.7125000
      0.7208333
      0.7291667
      0.7375000
      0.7458333
      0.7541667
      0.7625000
      0.7708333
      0.7791667
      0.7875000
      0.7958333
      0.8041667
      0.8125000
      0.8208333
      0.8291667
      0.8375000
      0.8458333
      0.8541667
      0.8625000
      0.8708333
      0.8791667
      0.8875000
      0.8958333
      0.9041667
      0.9125000
      0.9208333
      0.9291667
      0.9375000
      0.9458333
      0.9541667
      0.9625000
      0.9708333
      0.9791667
      0.9875000
      0.9958333
Z_COORDINATES   1 float
      0.0000000
POINT_DATA 14400
VECTORS vectors float
     -0.0000153	     -0.0000153	      0.0000000
      0.0000063	     -0.0000291	      0.0000000
      0.0000465	     -0.0000359	      0.0000000
      0.0000981	     -0.0000386	      0.0000000
      0.0001522	     -0.0000386	      0.0000000
      0.0002034	     -0.0000370	      0.0000000
      0.0002481	     -0.0000343	      0.0000000
      0.0002839	     -0.0000310	      0.0000000
      0.0003094	     -0.0000274	      0.0000000
      0.0003239	     -0.0000237	      0.0000000
      0.0003272	     -0.0000199	      0.0000000
      0.0003191	     -0.0000162	      0.0000000
      0.0002999	     -0.0000126	      0.0000000
      0.0002700	     -0.0000092	      0.0000000
      0.0002295	     -0.0000058	      0.0000000
      0.0001789	     -0.0000025	      0.0000000
      0.0001184	      0.0000007	      0.0000000
      0.0000482	      0.0000039	      0.0000000
     -0.0000314	      0.0000070	      0.0000000
     -0.0001205	      0.0000101	      0.0000000
     -0.0002188	      0.0000133	      0.0000000
     -0.0003265	      0.0000164	      0.0000000
     -0.0004435	      0.0000197	      0.0000000
     -0.0005700	      0.0000229	      0.0000000
     -0.0007060	      0.0000263	      0.0000000
     -0.0008516	      0.0000297	      0.0000000
     -0.0010069	      0.0000332	      0.0000000
     -0.0011721	      0.0000367	      0.0000000
     -0.0013470	      0.0000403	      0.0000000
     -0.0015319	      0.0000439	      0.0000000
     -0.0017266	      0.0000476	      0.0000000
     -0.0019310	      0.0000513	      0.0000000
     -0.0021450	      0.0000549	      0.0000000
     -0.0023684	      0.0000586	      0.0000000
     -0.0026007	      0.0000621	      0.0000000
     -0.0028416	      0.0000655	      0.0000000
     -0.0030906	      0.0000688	      0.0000000
     -0.0033470	      0.0000720	      0.0000000
     -0.0036101	      0.0000749	      0.0000000
     -0.0038790	      0.0000775	      0.0000000
     -0.0041527	      0.0000799	      0.0000000
     -0.0044301	      0.0000819	      0.0000000
     -0.0047101	      0.0000835	      0.0000000
     -0.0049912	      0.0000847	      0.0000000
     -0.0052721	      0.0000855	      0.0000000
     -0.0055511	      0.0000857	      0.0000000
     -0.0058266	      0.0000853	      0.0000000
     -0.0060968	      0.0000844	      0.0000000
     -0.0063598	      0.0000828	      0.0000000
     -0.0066138	      0.0000806	      0.0000000
     -0.0068567	      0.0000777	      0.0000000
     -0.0070865	      0.0000740	      0.0000000
     -0.0073012	      0.0000697	      0.0000000
     -0.0074986	      0.0000646	      0.0000000
     -0.0076768	      0.0000588	      0.0000000
     -0.0078338	      0.0000522	      0.0000000
     -0.0079676	      0.0000450	      0.0000000
     -0.0080764	      0.0000371	      0.0000000
     -0.0081584	      0.0000285	      0.0000000
     -0.0082121	      0.0000194	      0.0000000
     -0.0082360	      0.0000097	      0.0000000
     -0.0082290	     -0.0000004	      0.0000000
     -0.0081901	     -0.0000109	      0.0000000
     -0.0081185	     -0.0000218	      0.0000000
     -0.0080137	     -0.0000328	      0.0000000
     -0.0078756	     -0.0000439	      0.0000000
     -0.0077042	     -0.0000550	      0.0000000
     -0.0075001	     -0.0000660	      0.0000000
     -0.0072639	     -0.0000768	      0.0000000
     -0.0069968	     -0.0000872	      0.0000000
     -0.0067003	     -0.0000970	      0.0000000
     -0.0063760	     -0.0001063	      0.0000000
     -0.0060260	     -0.0001149	      0.0000000
     -0.0056529	     -0.0001226	      0.0000000
     -0.0052591	     -0.0001294	      0.0000000
     -0.0048476	     -0.0001351	      0.0000000
     -0.0044216	     -0.0001398	      0.0000000
     -0.0039844	     -0.0001433	      0.0000000
     -0.0035395	     -0.0001455	      0.0000000
     -0.0030904	     -0.0001465	      0.0000000
     -0.0026409	     -0.0001463	      0.0000000
     -0.0021944	     -0.0001448	      0.0000000
     -0.0017547	     -0.0001421	      0.0000000
     -0.0013251	     -0.0001382	      0.0000000
     -0.0009092	     -0.0001331	      0.0000000
     -0.0005099	     -0.0001270	      0.0000000
     -0.0001303	     -0.0001200	      0.0000000
      0.0002269	     -0.0001121	      0.0000000
      0.0005596	     -0.0001035	      0.0000000
      0.0008655	     -0.0000943	      0.0000000
      0.0011431	     -0.0000845	      0.0000000
      0.0013911	     -0.0000745	      0.0000000
      0.0016084	     -0.0000642	      0.0000000
      0.0017946	     -0.0000538	      0.0000000
      0.0019494	     -0.0000435	      0.0000000
      0.0020730	     -0.0000333	      0.0000000
      0.0021659	     -0.0000233	      0.0000000
      0.0022287	     -0.0000137	      0.0000000
      0.0022625	     -0.0000045	      0.0000000
      0.0022686	      0.0000041	      0.0000000
      0.0022484	      0.0000123	      0.0000000
      0.0022035	      0.0000198	      0.0000000
      0.0021358	      0.0000268	      0.0000000
      0.0020471	      0.0000331	      0.0000000
      0.0019394	      0.0000387	      0.0000000
      0.0018147	      0.0000437	      0.0000000
      0.0016752	      0.0000479	      0.0000000
      0.0015233	      0.0000515	      0.0000000
      0.0013612	      0.0000542	      0.0000000
      0.0011915	      0.0000562	      0.0000000
      0.0010172	      0.0000572	      0.0000000
      0.0008414	      0.0000572	      0.0000000
      0.0006679	      0.0000558	      0.0000000
      0.0005011	      0.0000528	      0.0000000
      0.0003462	      0.0000478	      0.0000000
      0.0002096	      0.0000403	      0.0000000
      0.0000985	      0.0000296	      0.0000000
      0.0000210	      0.0000157	      0.0000000
     -0.0000158	     -0.0000002	      0.0000000
     -0.0000122	     -0.0000106	      0.0000000
     -0.0000096	     -0.0000234	      0.0000000
      0.0000432	     -0.0000692	      0.0000000
      0.0001329	     -0.0000975	      0.0000000
      0.0002428	     -0.0001094	      0.0000000
      0.0003562	     -0.0001090	      0.0000000
      0.0004619	     -0.0001001	      0.0000000
      0.0005512	     -0.0000853	      0.0000000
      0.0006181	     -0.0000668	      0.0000000
      0.0006585	     -0.0000461	      0.0000000
      0.0006701	     -0.0000243	      0.0000000
      0.0006515	     -0.0000021	      0.0000000
      0.0006023	      0.0000200	      0.0000000
      0.0005226	      0.0000418	      0.0000000
      0.0004126	      0.0000630	      0.0000000
      0.0002730	      0.0000837	      0.0000000
      0.0001043	      0.0001039	      0.0000000
     -0.0000930	      0.0001236	      0.0000000
     -0.0003183	      0.0001429	      0.0000000
     -0.0005712	      0.0001620	      0.0000000
     -0.0008517	      0.0001809	      0.0000000
     -0.0011594	      0.0001998	      0.0000000
     -0.0014944	      0.0002188	      0.0000000
     -0.0018567	      0.0002378	      0.0000000
     -0.0022464	      0.0002570	      0.0000000
     -0.0026636	      0.0002764	      0.0000000
     -0.0031085	      0.0002960	      0.0000000
     -0.0035811	      0.0003157	      0.0000000
     -0.0040815	      0.0003356	      0.0000000
     -0.0046096	      0.0003555	      0.0000000
     -0.0051653	      0.0003753	      0.0000000
     -0.0057481	      0.0003950	      0.0000000
     -0.0063576	      0.0004144	      0.0000000
     -0.0069930	      0.0004334	      0.0000000
     -0.0076534	      0.0004518	      0.0000000
     -0.0083375	      0.0004693	      0.0000000
     -0.0090438	      0.0004860	      0.0000000
     -0.0097707	      0.0005014	      0.0000000
     -0.0105160	      0.0005154	      0.0000000
     -0.0112773	      0.0005278	      0.0000000
     -0.0120520	      0.0005384	      0.0000000
     -0.0128371	      0.0005468	      0.0000000
     -0.0136293	      0.0005529	      0.0000000
     -0.0144248	      0.0005564	      0.0000000
     -0.0152199	      0.0005571	      0.0000000
     -0.0160103	      0.0005548	      0.0000000
     -0.0167915	      0.0005493	      0.0000000
     -0.0175588	      0.0005403	      0.0000000
     -0.0183072	      0.0005277	      0.0000000
     -0.0190315	      0.0005114	      0.0000000
     -0.0197266	      0.0004912	      0.0000000
     -0.0203870	      0.0004670	      0.0000000
     -0.0210072	      0.0004388	      0.0000000
     -0.0215819	      0.0004064	      0.0000000
     -0.0221055	      0.0003701	      0.0000000
     -0.0225728	      0.0003298	      0.0000000
     -0.0229787	      0.0002856	      0.0000000
     -0.0233183	      0.0002377	      0.0000000
     -0.0235869	      0.0001864	      0.0000000
     -0.0237803	      0.0001318	      0.0000000
     -0.0238947	      0.0000742	      0.0000000
     -0.0239267	      0.0000142	      0.0000000
     -0.0238736	     -0.0000480	      0.0000000
     -0.0237331	     -0.0001118	      0.0000000
     -0.0235038	     -0.0001768	      0.0000000
     -0.0231849	     -0.0002424	      0.0000000
     -0.0227762	     -0.0003081	      0.0000000
     -0.0222785	     -0.0003731	      0.0000000
     -0.0216934	     -0.0004370	      0.0000000
     -0.0210232	     -0.0004989	      0.0000000
     -0.0202711	     -0.0005584	      0.0000000
     -0.0194411	     -0.0006147	      0.0000000
     -0.0185382	     -0.0006672	      0.0000000
     -0.0175678	     -0.0007153	      0.0000000
     -0.0165363	     -0.0007585	      0.0000000
     -0.0154508	     -0.0007962	      0.0000000
     -0.0143189	     -0.0008280	      0.0000000
     -0.0131489	     -0.0008534	      0.0000000
     -0.0119493	     -0.0008722	      0.0000000
     -0.0107291	     -0.0008841	      0.0000000
     -0.0094976	     -0.0008889	      0.0000000
     -0.0082642	     -0.0008866	      0.0000000
     -0.0070382	     -0.0008772	      0.0000000
     -0.0058289	     -0.0008609	      0.0000000
     -0.0046454	     -0.0008379	      0.0000000
     -0.0034963	     -0.0008086	      0.0000000
     -0.0023901	     -0.0007732	      0.0000000
     -0.0013342	     -0.0007323	      0.0000000
     -0.0003359	     -0.0006865	      0.0000000
      0.0005986	     -0.0006364	      0.0000000
      0.0014638	     -0.0005827	      0.0000000
      0.0022550	     -0.0005259	      0.0000000
      0.0029685	     -0.0004669	      0.0000000
      0.0036015	     -0.0004064	      0.0000000
      0.0041520	     -0.0003450	      0.0000000
      0.0046191	     -0.0002835	      0.0000000
      0.0050027	     -0.0002225	      0.0000000
      0.0053036	     -0.0001626	      0.0000000
      0.0055233	     -0.0001044	      0.0000000
      0.0056642	     -0.0000484	      0.0000000
      0.0057291	      0.0000050	      0.0000000
      0.0057216	      0.0000554	      0.0000000
      0.0056458	      0.0001025	      0.0000000
      0.0055062	      0.0001461	      0.0000000
      0.0053077	      0.0001858	      0.0000000
      0.0050555	      0.0002216	      0.0000000
      0.0047554	      0.0002532	      0.0000000
      0.0044131	      0.0002804	      0.0000000
      0.0040351	      0.0003029	      0.0000000
      0.0036280	      0.0003205	      0.0000000
      0.0031992	      0.0003327	      0.0000000
      0.0027566	      0.0003389	      0.0000000
      0.0023091	      0.0003382	      0.0000000
      0.0018668	      0.0003295	      0.0000000
      0.0014410	      0.0003116	      0.0000000
      0.0010445	      0.0002827	      0.0000000
      0.0006917	      0.0002412	      0.0000000
      0.0003976	      0.0001860	      0.0000000
      0.0001768	      0.0001179	      0.0000000
      0.0000417	      0.0000428	      0.0000000
     -0.0000021	     -0.0000150	      0.0000000
     -0.0000023	     -0.0000599	      0.0000000
      0.0000714	     -0.0001566	      0.0000000
      0.0001902	     -0.0002158	      0.0000000
      0.0003292	     -0.0002399	      0.0000000
      0.0004680	     -0.0002361	      0.0000000
      0.0005924	     -0.0002113	      0.0000000
      0.0006907	     -0.0001717	      0.0000000
      0.0007544	     -0.0001220	      0.0000000
      0.0007777	     -0.0000661	      0.0000000
      0.0007568	     -0.0000065	      0.0000000
      0.0006894	      0.0000547	      0.0000000
      0.0005745	      0.0001163	      0.0000000
      0.0004117	      0.0001774	      0.0000000
      0.0002012	      0.0002376	      0.0000000
     -0.0000564	      0.0002966	      0.0000000
     -0.0003607	      0.0003545	      0.0000000
     -0.0007109	      0.0004113	      0.0000000
     -0.0011065	      0.0004673	      0.0000000
     -0.0015471	      0.0005227	      0.0000000
     -0.0020323	      0.0005776	      0.0000000
     -0.0025619	      0.0006324	      0.0000000
     -0.0031360	      0.0006873	      0.0000000
     -0.0037544	      0.0007423	      0.0000000
     -0.0044172	      0.0007976	      0.0000000
     -0.0051245	      0.0008531	      0.0000000
     -0.0058763	      0.0009089	      0.0000000
     -0.0066725	      0.0009649	      0.0000000
     -0.0075129	      0.0010209	      0.0000000
     -0.0083972	      0.0010767	      0.0000000
     -0.0093248	      0.0011319	      0.0000000
     -0.0102947	      0.0011864	      0.0000000
     -0.0113059	      0.0012396	      0.0000000
     -0.0123567	      0.0012911	      0.0000000
     -0.0134454	      0.0013406	      0.0000000
     -0.0145697	      0.0013873	      0.0000000
     -0.0157267	      0.0014309	      0.0000000
     -0.0169134	      0.0014706	      0.0000000
     -0.0181260	      0.0015060	      0.0000000
     -0.0193606	      0.0015363	      0.0000000
     -0.0206125	      0.0015609	      0.0000000
     -0.0218767	      0.0015792	      0.0000000
     -0.0231476	      0.0015906	      0.0000000
     -0.0244193	      0.0015945	      0.0000000
     -0.0256852	      0.0015901	      0.0000000
     -0.0269387	      0.0015771	      0.0000000
     -0.0281725	      0.0015547	      0.0000000
     -0.0293791	      0.0015227	      0.0000000
     -0.0305507	      0.0014805	      0.0000000
     -0.0316793	      0.0014278	      0.0000000
     -0.0327567	      0.0013644	      0.0000000
     -0.0337746	      0.0012900	      0.0000000
     -0.0347248	      0.0012046	      0.0000000
     -0.0355991	      0.0011083	      0.0000000
     -0.0363894	      0.0010011	      0.0000000
     -0.0370878	      0.0008834	      0.0000000
     -0.0376869	      0.0007554	      0.0000000
     -0.0381795	      0.0006179	      0.0000000
     -0.0385592	      0.0004713	      0.0000000
     -0.0388199	      0.0003165	      0.0000000
     -0.0389564	      0.0001544	      0.0000000
     -0.0389640	     -0.0000139	      0.0000000
     -0.0388393	     -0.0001874	      0.0000000
     -0.0385794	     -0.0003646	      0.0000000
     -0.0381826	     -0.0005443	      0.0000000
     -0.0376483	     -0.0007250	      0.0000000
     -0.0369769	     -0.0009051	      0.0000000
     -0.0361700	     -0.0010830	      0.0000000
     -0.0352304	     -0.0012570	      0.0000000
     -0.0341620	     -0.0014254	      0.0000000
     -0.0329700	     -0.0015867	      0.0000000
     -0.0316607	     -0.0017391	      0.0000000
     -0.0302416	     -0.0018809	      0.0000000
     -0.0287212	     -0.0020107	      0.0000000
     -0.0271091	     -0.0021271	      0.0000000
     -0.0254160	     -0.0022286	      0.0000000
     -0.0236531	     -0.0023141	      0.0000000
     -0.0218327	     -0.0023827	      0.0000000
     -0.0199676	     -0.0024334	      0.0000000
     -0.0180710	     -0.0024657	      0.0000000
     -0.0161567	     -0.0024792	      0.0000000
     -0.0142383	     -0.0024738	      0.0000000
     -0.0123299	     -0.0024495	      0.0000000
     -0.0104450	     -0.0024067	      0.0000000
     -0.0085972	     -0.0023459	      0.0000000
     -0.0067994	     -0.0022680	      0.0000000
     -0.0050640	     -0.0021739	      0.0000000
     -0.0034025	     -0.0020650	      0.0000000
     -0.0018256	     -0.0019425	      0.0000000
     -0.0003431	     -0.0018082	      0.0000000
      0.0010366	     -0.0016636	      0.0000000
      0.0023062	     -0.0015106	      0.0000000
      0.0034596	     -0.0013510	      0.0000000
      0.0044922	     -0.0011867	      0.0000000
      0.0054005	     -0.0010196	      0.0000000
      0.0061826	     -0.0008514	      0.0000000
      0.0068377	     -0.0006840	      0.0000000
      0.0073664	     -0.0005190	      0.0000000
      0.0077705	     -0.0003579	      0.0000000
      0.0080529	     -0.0002022	      0.0000000
      0.0082176	     -0.0000531	      0.0000000
      0.0082695	      0.0000883	      0.0000000
      0.0082145	      0.0002211	      0.0000000
      0.0080590	      0.0003443	      0.0000000
      0.0078103	      0.0004573	      0.0000000
      0.0074764	      0.0005593	      0.0000000
      0.0070657	      0.0006497	      0.0000000
      0.0065874	      0.0007279	      0.0000000
      0.0060513	      0.0007929	      0.0000000
      0.0054679	      0.0008440	      0.0000000
      0.0048484	      0.0008797	      0.0000000
      0.0042053	      0.0008984	      0.0000000
      0.0035522	      0.0008983	      0.0000000
      0.0029038	      0.0008767	      0.0000000
      0.0022768	      0.0008308	      0.0000000
      0.0016891	      0.0007574	      0.0000000
      0.0011603	      0.0006538	      0.0000000
      0.0007100	      0.0005190	      0.0000000
      0.0003563	      0.0003562	      0.0000000
      0.0001174	      0.0001780	      0.0000000
      0.0000141	      0.0000219	      0.0000000
      0.0000013	     -0.0001090	      0.0000000
      0.0000848	     -0.0002641	      0.0000000
      0.0002144	     -0.0003538	      0.0000000
      0.0003595	     -0.0003861	      0.0000000
      0.0004970	     -0.0003720	      0.0000000
      0.0006110	     -0.0003223	      0.0000000
      0.0006885	     -0.0002468	      0.0000000
      0.0007195	     -0.0001532	      0.0000000
      0.0006972	     -0.0000477	      0.0000000
      0.0006167	      0.0000648	      0.0000000
      0.0004752	      0.0001811	      0.0000000
      0.0002708	      0.0002986	      0.0000000
      0.0000031	      0.0004159	      0.0000000
     -0.0003282	      0.0005321	      0.0000000
     -0.0007227	      0.0006465	      0.0000000
     -0.0011800	      0.0007593	      0.0000000
     -0.0016995	      0.0008704	      0.0000000
     -0.0022806	      0.0009801	      0.0000000
     -0.0029230	      0.0010888	      0.0000000
     -0.0036262	      0.0011968	      0.0000000
     -0.0043902	      0.0013045	      0.0000000
     -0.0052147	      0.0014122	      0.0000000
     -0.0060997	      0.0015201	      0.0000000
     -0.0070451	      0.0016282	      0.0000000
     -0.0080508	      0.0017366	      0.0000000
     -0.0091167	      0.0018451	      0.0000000
     -0.0102423	      0.0019535	      0.0000000
     -0.0114271	      0.0020614	      0.0000000
     -0.0126702	      0.0021684	      0.0000000
     -0.0139704	      0.0022739	      0.0000000
     -0.0153262	      0.0023772	      0.0000000
     -0.0167356	      0.0024776	      0.0000000
     -0.0181962	      0.0025741	      0.0000000
     -0.0197048	      0.0026659	      0.0000000
     -0.0212580	      0.0027518	      0.0000000
     -0.0228518	      0.0028309	      0.0000000
     -0.0244813	      0.0029020	      0.0000000
     -0.0261413	      0.0029640	      0.0000000
     -0.0278258	      0.0030156	      0.0000000
     -0.0295284	      0.0030557	      0.0000000
     -0.0312418	      0.0030832	      0.0000000
     -0.0329584	      0.0030967	      0.0000000
     -0.0346699	      0.0030953	      0.0000000
     -0.0363675	      0.0030779	      0.0000000
     -0.0380419	      0.0030434	      0.0000000
     -0.0396836	      0.0029910	      0.0000000
     -0.0412824	      0.0029198	      0.0000000
     -0.0428281	      0.0028292	      0.0000000
     -0.0443102	      0.0027186	      0.0000000
     -0.0457181	      0.0025877	      0.0000000
     -0.0470411	      0.0024363	      0.0000000
     -0.0482687	      0.0022644	      0.0000000
     -0.0493905	      0.0020721	      0.0000000
     -0.0503965	      0.0018598	      0.0000000
     -0.0512769	      0.0016283	      0.0000000
     -0.0520226	      0.0013783	      0.0000000
     -0.0526249	      0.0011109	      0.0000000
     -0.0530760	      0.0008275	      0.0000000
     -0.0533690	      0.0005296	      0.0000000
     -0.0534976	      0.0002190	      0.0000000
     -0.0534568	     -0.0001023	      0.0000000
     -0.0532426	     -0.0004322	      0.0000000
     -0.0528523	     -0.0007681	      0.0000000
     -0.0522844	     -0.0011076	      0.0000000
     -0.0515386	     -0.0014480	      0.0000000
     -0.0506161	     -0.0017863	      0.0000000
     -0.0495196	     -0.0021197	      0.0000000
     -0.0482531	     -0.0024451	      0.0000000
     -0.0468219	     -0.0027595	      0.0000000
     -0.0452331	     -0.0030600	      0.0000000
     -0.0434948	     -0.0033435	      0.0000000
     -0.0416169	     -0.0036072	      0.0000000
     -0.0396102	     -0.0038484	      0.0000000
     -0.0374869	     -0.0040644	      0.0000000
     -0.0352604	     -0.0042530	      0.0000000
     -0.0329449	     -0.0044120	      0.0000000
     -0.0305558	     -0.0045398	      0.0000000
     -0.0281090	     -0.0046348	      0.0000000
     -0.0256210	     -0.0046959	      0.0000000
     -0.0231089	     -0.0047226	      0.0000000
     -0.0205900	     -0.0047144	      0.0000000
     -0.0180815	     -0.0046715	      0.0000000
     -0.0156006	     -0.0045946	      0.0000000
     -0.0131641	     -0.0044845	      0.0000000
     -0.0107885	     -0.0043427	      0.0000000
     -0.0084892	     -0.0041709	      0.0000000
     -0.0062811	     -0.0039714	      0.0000000
     -0.0041779	     -0.0037466	      0.0000000
     -0.0021921	     -0.0034993	      0.0000000
     -0.0003348	     -0.0032325	      0.0000000
      0.0013842	     -0.0029494	      0.0000000
      0.0029568	     -0.0026533	      0.0000000
      0.0043764	     -0.0023475	      0.0000000
      0.0056380	     -0.0020356	      0.0000000
      0.0067383	     -0.0017208	      0.0000000
      0.0076758	     -0.0014063	      0.0000000
      0.0084505	     -0.0010954	      0.0000000
      0.0090638	     -0.0007908	      0.0000000
      0.0095188	     -0.0004953	      0.0000000
      0.0098199	     -0.0002113	      0.0000000
      0.0099729	      0.0000589	      0.0000000
      0.0099846	      0.0003135	      0.0000000
      0.0098630	      0.0005507	      0.0000000
      0.0096173	      0.0007690	      0.0000000
      0.0092573	      0.0009668	      0.0000000
      0.0087938	      0.0011427	      0.0000000
      0.0082387	      0.0012954	      0.0000000
      0.0076045	      0.0014232	      0.0000000
      0.0069048	      0.0015242	      0.0000000
      0.0061544	      0.0015961	      0.0000000
      0.0053691	      0.0016360	      0.0000000
      0.0045661	      0.0016406	      0.0000000
      0.0037642	      0.0016059	      0.0000000
      0.0029836	      0.0015273	      0.0000000
      0.0022460	      0.0014003	      0.0000000
      0.0015746	      0.0012214	      0.0000000
      0.0009925	      0.0009897	      0.0000000
      0.0005212	      0.0007104	      0.0000000
      0.0001867	      0.0003998	      0.0000000
      0.0000283	      0.0001000	      0.0000000
      0.0000021	     -0.0001621	      0.0000000
      0.0000852	     -0.0003751	      0.0000000
      0.0002089	     -0.0004899	      0.0000000
      0.0003397	     -0.0005224	      0.0000000
      0.0004528	     -0.0004885	      0.0000000
      0.0005316	     -0.0004036	      0.0000000
      0.0005624	     -0.0002808	      0.0000000
      0.0005347	     -0.0001312	      0.0000000
      0.0004411	      0.0000365	      0.0000000
      0.0002763	      0.0002155	      0.0000000
      0.0000369	      0.0004008	      0.0000000
     -0.0002792	      0.0005888	      0.0000000
     -0.0006729	      0.0007771	      0.0000000
     -0.0011447	      0.0009642	      0.0000000
     -0.0016945	      0.0011494	      0.0000000
     -0.0023219	      0.0013324	      0.0000000
     -0.0030266	      0.0015132	      0.0000000
     -0.0038081	      0.0016923	      0.0000000
     -0.0046661	      0.0018699	      0.0000000
     -0.0056003	      0.0020467	      0.0000000
     -0.0066105	      0.0022229	      0.0000000
     -0.0076965	      0.0023990	      0.0000000
     -0.0088581	      0.0025750	      0.0000000
     -0.0100950	      0.0027512	      0.0000000
     -0.0114069	      0.0029274	      0.0000000
     -0.0127934	      0.0031032	      0.0000000
     -0.0142536	      0.0032783	      0.0000000
     -0.0157863	      0.0034520	      0.0000000
     -0.0173903	      0.0036234	      0.0000000
     -0.0190635	      0.0037916	      0.0000000
     -0.0208035	      0.0039553	      0.0000000
     -0.0226074	      0.0041134	      0.0000000
     -0.0244715	      0.0042644	      0.0000000
     -0.0263916	      0.0044067	      0.0000000
     -0.0283629	      0.0045388	      0.0000000
     -0.0303796	      0.0046587	      0.0000000
     -0.0324355	      0.0047649	      0.0000000
     -0.0345235	      0.0048554	      0.0000000
     -0.0366357	      0.0049284	      0.0000000
     -0.0387638	      0.0049820	      0.0000000
     -0.0408985	      0.0050145	      0.0000000
     -0.0430299	      0.0050240	      0.0000000
     -0.0451477	      0.0050089	      0.0000000
     -0.0472408	      0.0049676	      0.0000000
     -0.0492977	      0.0048985	      0.0000000
     -0.0513067	      0.0048006	      0.0000000
     -0.0532554	      0.0046725	      0.0000000
     -0.0551315	      0.0045135	      0.0000000
     -0.0569223	      0.0043228	      0.0000000
     -0.0586153	      0.0041001	      0.0000000
     -0.0601979	      0.0038453	      0.0000000
     -0.0616579	      0.0035585	      0.0000000
     -0.0629833	      0.0032402	      0.0000000
     -0.0641626	      0.0028913	      0.0000000
     -0.0651847	      0.0025129	      0.0000000
     -0.0660393	      0.0021065	      0.0000000
     -0.0667171	      0.0016740	      0.0000000
     -0.0672094	      0.0012176	      0.0000000
     -0.0675087	      0.0007398	      0.0000000
     -0.0676085	      0.0002435	      0.0000000