# vtk DataFile Version 2.0
U V velocities
ASCII
DATASET RECTILINEAR_GRID
DIMENSIONS  120  120    1
X_COORDINATES 120 float
      0.0041667
      0.0125000
      0.0208333
      0.0291667
      0.0375000
      0.0458333
      0.0541667
      0.0625000
      0.0708333
      0.0791667
      0.0875000
      0.0958333
      0.1041667
      0.1125000
      0.1208333
      0.1291667
      0.1375000
      0.1458333
      0.1541667
      0.1625000
      0.1708333
      0.1791667
      0.1875000
      0.1958333
      0.2041667
      0.2125000
      0.2208333
      0.2291667
      0.2375000
      0.2458333
      0.2541667
      0.2625000
      0.2708333
      0.2791667
      0.2875000
      0.2958333
      0.3041667
      0.3125000
      0.3208333
      0.3291667
      0.3375000
      0.3458333
      0.3541667
      0.3625000
      0.3708333
      0.3791667
      0.3875000
      0.3958333
      0.4041667
      0.4125000
      0.4208333
      0.4291667
      0.4375000
      0.4458333
      0.4541667
      0.4625000
      0.4708333
      0.4791667
      0.4875000
      0.4958333
      0.5041667
      0.5125000
      0.5208333
      0.5291667
      0.5375000
      0.5458333
      0.5541667
      0.5625000
      0.5708333
      0.5791667
      0.5875000
      0.5958333
      0.6041667
      0.6125000
      0.6208333
      0.6291667
      0.6375000
      0.6458333
      0.6541667
      0.6625000
      0.6708333
      0.6791667
      0.6875000
      0.6958333
      0.7041667
      0.7125000
      0.7208333
      0.7291667
      0.7375000
      0.7458333
      0.7541667
      0.7625000
      0.7708333
      0.7791667
      0.7875000
      0.7958333
      0.8041667
      0.8125000
      0.8208333
      0.8291667
      0.8375000
      0.8458333
      0.8541667
      0.8625000
      0.8708333
      0.8791667
      0.8875000
      0.8958333
      0.9041667
      0.9125000
      0.9208333
      0.9291667
      0.9375000
      0.9458333
      0.9541667
      0.9625000
      0.9708333
      0.9791667
      0.9875000
      0.9958333
Y_COORDINATES 120 float
      0.0041667
      0.0125000
      0.0208333
      0.0291667
      0.0375000
      0.0458333
      0.0541667
      0.0625000
      0.0708333
      0.0791667
      0.0875000
      0.0958333
      0.1041667
      0.1125000
      0.1208333
      0.1291667
      0.1375000
      0.1458333
      0.1541667
      0.1625000
      0.1708333
      0.1791667
      0.1875000
      0.1958333
      0.2041667
      0.2125000
      0.2208333
      0.2291667
      0.2375000
      0.2458333
      0.2541667
      0.2625000
      0.2708333
      0.2791667
      0.2875000
      0.2958333
      0.3041667
      0.3125000
      0.3208333
      0.3291667
      0.3375000
      0.3458333
      0.3541667
      0.3625000
      0.3708333
      0.3791667
      0.3875000
      0.3958333
      0.4041667
      0.4125000
      0.4208333
      0.4291667
      0.4375000
      0.4458333
      0.4541667
      0.4625000
      0.4708333
      0.4791667
      0.4875000
      0.4958333
      0.5041667
      0.5125000
      0.5208333
      0.5291667
      0.5375000
      0.5458333
      0.5541667
      0.5625000
      0.5708333
      0.5791667
      0.5875000
      0.5958333
      0.6041667
      0.6125000
      0.6208333
      0.6291667
      0.6375000
      0.6458333
      0.6541667
      0.6625000
      0.6708333
      0.6791667
      0.6875000
      0.6958333
      0.7041667
      0.7125000
      0.7208333
      0.7291667
      0.7375000
      0.7458333
      0.7541667
      0.7625000
      0.7708333
      0.7791667
      0.7875000
      0.7958333
      0.8041667
      0.8125000
      0.8208333
      0.8291667
      0.8375000
      0.8458333
      0.8541667
      0.8625000
      0.8708333
      0.8791667
      0.8875000
      0.8958333
      0.9041667
      0.9125000
      0.9208333
      0.9291667
      0.9375000
      0.9458333
      0.9541667
      0.9625000
      0.9708333
      0.9791667
      0.9875000
      0.9958333
Z_COORDINATES   1 float
      0.0000000
POINT_DATA 14400
VECTORS vectors float
     -0.0000016	     -0.0000012	      0.0000000
      0.0000142	     -0.0000116	      0.0000000
      0.0000544	     -0.0000190	      0.0000000
      0.0001074	     -0.0000223	      0.0000000
      0.0001642	     -0.0000228	      0.0000000
      0.0002188	     -0.0000214	      0.0000000
      0.0002671	     -0.0000190	      0.0000000
      0.0003065	     -0.0000158	      0.0000000
      0.0003355	     -0.0000123	      0.0000000
      0.0003531	     -0.0000087	      0.0000000
      0.0003590	     -0.0000051	      0.0000000
      0.0003531	     -0.0000016	      0.0000000
      0.0003357	      0.0000018	      0.0000000
      0.0003068	      0.0000051	      0.0000000
      0.0002670	      0.0000082	      0.0000000
      0.0002164	      0.0000112	      0.0000000
      0.0001553	      0.0000141	      0.0000000
      0.0000841	      0.0000169	      0.0000000
      0.0000028	      0.0000197	      0.0000000
     -0.0000883	      0.0000224	      0.0000000
     -0.0001893	      0.0000252	      0.0000000
     -0.0003001	      0.0000279	      0.0000000
     -0.0004207	      0.0000307	      0.0000000
     -0.0005513	      0.0000335	      0.0000000
     -0.0006919	      0.0000364	      0.0000000
     -0.0008426	      0.0000393	      0.0000000
     -0.0010035	      0.0000423	      0.0000000
     -0.0011747	      0.0000453	      0.0000000
     -0.0013563	      0.0000484	      0.0000000
     -0.0015483	      0.0000515	      0.0000000
     -0.0017506	      0.0000546	      0.0000000
     -0.0019632	      0.0000577	      0.0000000
     -0.0021858	      0.0000608	      0.0000000
     -0.0024183	      0.0000639	      0.0000000
     -0.0026603	      0.0000669	      0.0000000
     -0.0029113	      0.0000697	      0.0000000
     -0.0031709	      0.0000725	      0.0000000
     -0.0034383	      0.0000750	      0.0000000
     -0.0037128	      0.0000774	      0.0000000
     -0.0039935	      0.0000795	      0.0000000
     -0.0042793	      0.0000814	      0.0000000
     -0.0045692	      0.0000829	      0.0000000
     -0.0048618	      0.0000841	      0.0000000
     -0.0051558	      0.0000848	      0.0000000
     -0.0054496	      0.0000851	      0.0000000
     -0.0057417	      0.0000850	      0.0000000
     -0.0060301	      0.0000843	      0.0000000
     -0.0063132	      0.0000830	      0.0000000
     -0.0065890	      0.0000812	      0.0000000
     -0.0068554	      0.0000787	      0.0000000
     -0.0071105	      0.0000756	      0.0000000
     -0.0073520	      0.0000719	      0.0000000
     -0.0075778	      0.0000674	      0.0000000
     -0.0077859	      0.0000623	      0.0000000
     -0.0079740	      0.0000565	      0.0000000
     -0.0081400	      0.0000501	      0.0000000
     -0.0082820	      0.0000430	      0.0000000
     -0.0083981	      0.0000353	      0.0000000
     -0.0084863	      0.0000269	      0.0000000
     -0.0085451	      0.0000181	      0.0000000
     -0.0085730	      0.0000087	      0.0000000
     -0.0085688	     -0.0000010	      0.0000000
     -0.0085313	     -0.0000112	      0.0000000
     -0.0084597	     -0.0000216	      0.0000000
     -0.0083537	     -0.0000321	      0.0000000
     -0.0082129	     -0.0000428	      0.0000000
     -0.0080375	     -0.0000534	      0.0000000
     -0.0078280	     -0.0000639	      0.0000000
     -0.0075850	     -0.0000741	      0.0000000
     -0.0073098	     -0.0000839	      0.0000000
     -0.0070038	     -0.0000933	      0.0000000
     -0.0066688	     -0.0001021	      0.0000000
     -0.0063070	     -0.0001102	      0.0000000
     -0.0059208	     -0.0001175	      0.0000000
     -0.0055130	     -0.0001238	      0.0000000
     -0.0050867	     -0.0001292	      0.0000000
     -0.0046451	     -0.0001335	      0.0000000
     -0.0041917	     -0.0001367	      0.0000000
     -0.0037300	     -0.0001387	      0.0000000
     -0.0032639	     -0.0001395	      0.0000000
     -0.0027970	     -0.0001391	      0.0000000
     -0.0023332	     -0.0001374	      0.0000000
     -0.0018762	     -0.0001346	      0.0000000
     -0.0014296	     -0.0001307	      0.0000000
     -0.0009970	     -0.0001257	      0.0000000
     -0.0005817	     -0.0001197	      0.0000000
     -0.0001866	     -0.0001127	      0.0000000
      0.0001853	     -0.0001050	      0.0000000
      0.0005318	     -0.0000966	      0.0000000
      0.0008506	     -0.0000875	      0.0000000
      0.0011400	     -0.0000781	      0.0000000
      0.0013986	     -0.0000683	      0.0000000
      0.0016256	     -0.0000583	      0.0000000
      0.0018202	     -0.0000482	      0.0000000
      0.0019823	     -0.0000382	      0.0000000
      0.0021120	     -0.0000283	      0.0000000
      0.0022097	     -0.0000187	      0.0000000
      0.0022764	     -0.0000095	      0.0000000
      0.0023130	     -0.0000007	      0.0000000
      0.0023209	      0.0000077	      0.0000000
      0.0023016	      0.0000155	      0.0000000
      0.0022568	      0.0000227	      0.0000000
      0.0021883	      0.0000293	      0.0000000
      0.0020981	      0.0000353	      0.0000000
      0.0019882	      0.0000407	      0.0000000
      0.0018609	      0.0000454	      0.0000000
      0.0017183	      0.0000494	      0.0000000
      0.0015628	      0.0000527	      0.0000000
      0.0013968	      0.0000553	      0.0000000
      0.0012230	      0.0000571	      0.0000000
      0.0010444	      0.0000580	      0.0000000
      0.0008642	      0.0000578	      0.0000000
      0.0006863	      0.0000563	      0.0000000
      0.0005152	      0.0000532	      0.0000000
      0.0003562	      0.0000480	      0.0000000
      0.0002159	      0.0000403	      0.0000000
      0.0001018	      0.0000294	      0.0000000
      0.0000222	      0.0000152	      0.0000000
     -0.0000157	     -0.0000011	      0.0000000
     -0.0000117	     -0.0000116	      0.0000000
      0.0000082	     -0.0000158	      0.0000000
      0.0000575	     -0.0000596	      0.0000000
      0.0001512	     -0.0000898	      0.0000000
      0.0002670	     -0.0001037	      0.0000000
      0.0003880	     -0.0001049	      0.0000000
      0.0005022	     -0.0000967	      0.0000000
      0.0006004	     -0.0000823	      0.0000000
      0.0006760	     -0.0000637	      0.0000000
      0.0007245	     -0.0000426	      0.0000000
      0.0007434	     -0.0000202	      0.0000000
      0.0007309	      0.0000027	      0.0000000
      0.0006865	      0.0000256	      0.0000000
      0.0006102	      0.0000482	      0.0000000
      0.0005021	      0.0000703	      0.0000000
      0.0003628	      0.0000918	      0.0000000
      0.0001929	      0.0001128	      0.0000000
     -0.0000071	      0.0001333	      0.0000000
     -0.0002368	      0.0001534	      0.0000000
     -0.0004956	      0.0001733	      0.0000000
     -0.0007834	      0.0001929	      0.0000000
     -0.0011000	      0.0002125	      0.0000000
     -0.0014454	      0.0002321	      0.0000000
     -0.0018195	      0.0002518	      0.0000000
     -0.0022224	      0.0002716	      0.0000000
     -0.0026543	      0.0002916	      0.0000000
     -0.0031154	      0.0003118	      0.0000000
     -0.0036056	      0.0003321	      0.0000000
     -0.0041250	      0.0003526	      0.0000000
     -0.0046737	      0.0003731	      0.0000000
     -0.0052512	      0.0003935	      0.0000000
     -0.0058574	      0.0004138	      0.0000000
     -0.0064916	      0.0004338	      0.0000000
     -0.0071531	      0.0004533	      0.0000000
     -0.0078409	      0.0004722	      0.0000000
     -0.0085538	      0.0004903	      0.0000000
     -0.0092901	      0.0005074	      0.0000000
     -0.0100481	      0.0005233	      0.0000000
     -0.0108256	      0.0005378	      0.0000000
     -0.0116202	      0.0005505	      0.0000000
     -0.0124290	      0.0005613	      0.0000000
     -0.0132489	      0.0005700	      0.0000000
     -0.0140764	      0.0005762	      0.0000000
     -0.0149078	      0.0005798	      0.0000000
     -0.0157390	      0.0005804	      0.0000000
     -0.0165656	      0.0005780	      0.0000000
     -0.0173829	      0.0005722	      0.0000000
     -0.0181859	      0.0005629	      0.0000000
     -0.0189695	      0.0005498	      0.0000000
     -0.0197283	      0.0005329	      0.0000000
     -0.0204569	      0.0005119	      0.0000000
     -0.0211496	      0.0004869	      0.0000000
     -0.0218007	      0.0004576	      0.0000000
     -0.0224045	      0.0004242	      0.0000000
     -0.0229555	      0.0003867	      0.0000000
     -0.0234480	      0.0003450	      0.0000000
     -0.0238767	      0.0002994	      0.0000000
     -0.0242366	      0.0002499	      0.0000000
     -0.0245228	      0.0001968	      0.0000000
     -0.0247309	      0.0001405	      0.0000000
     -0.0248568	      0.0000811	      0.0000000
     -0.0248972	      0.0000191	      0.0000000
     -0.0248490	     -0.0000451	      0.0000000
     -0.0247100	     -0.0001111	      0.0000000
     -0.0244787	     -0.0001782	      0.0000000
     -0.0241540	     -0.0002460	      0.0000000
     -0.0237360	     -0.0003137	      0.0000000
     -0.0232253	     -0.0003809	      0.0000000
     -0.0226236	     -0.0004469	      0.0000000
     -0.0219333	     -0.0005109	      0.0000000
     -0.0211576	     -0.0005724	      0.0000000
     -0.0203007	     -0.0006306	      0.0000000
     -0.0193677	     -0.0006849	      0.0000000
     -0.0183642	     -0.0007347	      0.0000000
     -0.0172969	     -0.0007795	      0.0000000
     -0.0161731	     -0.0008185	      0.0000000
     -0.0150007	     -0.0008515	      0.0000000
     -0.0137882	     -0.0008779	      0.0000000
     -0.0125446	     -0.0008975	      0.0000000
     -0.0112792	     -0.0009100	      0.0000000
     -0.0100015	     -0.0009151	      0.0000000
     -0.0087214	     -0.0009130	      0.0000000
     -0.0074486	     -0.0009035	      0.0000000
     -0.0061927	     -0.0008869	      0.0000000
     -0.0049632	     -0.0008633	      0.0000000
     -0.0037692	     -0.0008332	      0.0000000
     -0.0026191	     -0.0007968	      0.0000000
     -0.0015212	     -0.0007548	      0.0000000
     -0.0004827	     -0.0007077	      0.0000000
      0.0004898	     -0.0006561	      0.0000000
      0.0013906	     -0.0006007	      0.0000000
      0.0022147	     -0.0005423	      0.0000000
      0.0029584	     -0.0004815	      0.0000000
      0.0036186	     -0.0004191	      0.0000000
      0.0041934	     -0.0003559	      0.0000000
      0.0046818	     -0.0002926	      0.0000000
      0.0050837	     -0.0002297	      0.0000000
      0.0053998	     -0.0001681	      0.0000000
      0.0056318	     -0.0001082	      0.0000000
      0.0057821	     -0.0000506	      0.0000000
      0.0058538	      0.0000044	      0.0000000
      0.0058506	      0.0000562	      0.0000000
      0.0057766	      0.0001046	      0.0000000
      0.0056367	      0.0001493	      0.0000000
      0.0054358	      0.0001901	      0.0000000
      0.0051795	      0.0002267	      0.0000000
      0.0048736	      0.0002591	      0.0000000
      0.0045241	      0.0002869	      0.0000000
      0.0041377	      0.0003101	      0.0000000
      0.0037213	      0.0003281	      0.0000000
      0.0032823	      0.0003406	      0.0000000
      0.0028290	      0.0003469	      0.0000000
      0.0023705	      0.0003462	      0.0000000
      0.0019171	      0.0003374	      0.0000000
      0.0014805	      0.0003190	      0.0000000
      0.0010737	      0.0002895	      0.0000000
      0.0007115	      0.0002470	      0.0000000
      0.0004096	      0.0001905	      0.0000000
      0.0001826	      0.0001206	      0.0000000
      0.0000437	      0.0000436	      0.0000000
     -0.0000012	     -0.0000156	      0.0000000
      0.0000158	     -0.0000559	      0.0000000
      0.0000882	     -0.0001534	      0.0000000
      0.0002148	     -0.0002162	      0.0000000
      0.0003640	     -0.0002440	      0.0000000
      0.0005145	     -0.0002428	      0.0000000
      0.0006513	     -0.0002194	      0.0000000
      0.0007621	     -0.0001801	      0.0000000
      0.0008379	     -0.0001299	      0.0000000
      0.0008723	     -0.0000725	      0.0000000
      0.0008610	     -0.0000111	      0.0000000
      0.0008014	      0.0000524	      0.0000000
      0.0006923	      0.0001166	      0.0000000
      0.0005330	      0.0001805	      0.0000000
      0.0003237	      0.0002435	      0.0000000
      0.0000648	      0.0003054	      0.0000000
     -0.0002432	      0.0003662	      0.0000000
     -0.0005997	      0.0004258	      0.0000000
     -0.0010041	      0.0004846	      0.0000000
     -0.0014559	      0.0005428	      0.0000000
     -0.0019549	      0.0006004	      0.0000000
     -0.0025007	      0.0006579	      0.0000000
     -0.0030933	      0.0007154	      0.0000000
     -0.0037326	      0.0007729	      0.0000000
     -0.0044188	      0.0008308	      0.0000000
     -0.0051518	      0.0008889	      0.0000000
     -0.0059316	      0.0009472	      0.0000000
     -0.0067581	      0.0010057	      0.0000000
     -0.0076312	      0.0010642	      0.0000000
     -0.0085504	      0.0011225	      0.0000000
     -0.0095151	      0.0011802	      0.0000000
     -0.0105245	      0.0012371	      0.0000000
     -0.0115772	      0.0012927	      0.0000000
     -0.0126717	      0.0013466	      0.0000000
     -0.0138060	      0.0013982	      0.0000000
     -0.0149778	      0.0014472	      0.0000000
     -0.0161842	      0.0014927	      0.0000000
     -0.0174218	      0.0015343	      0.0000000
     -0.0186870	      0.0015714	      0.0000000
     -0.0199754	      0.0016032	      0.0000000
     -0.0212822	      0.0016291	      0.0000000
     -0.0226021	      0.0016484	      0.0000000
     -0.0239294	      0.0016605	      0.0000000
     -0.0252578	      0.0016648	      0.0000000
     -0.0265806	      0.0016605	      0.0000000
     -0.0278907	      0.0016472	      0.0000000
     -0.0291806	      0.0016242	      0.0000000
     -0.0304424	      0.0015912	      0.0000000
     -0.0316681	      0.0015476	      0.0000000
     -0.0328492	      0.0014931	      0.0000000
     -0.0339772	      0.0014274	      0.0000000
     -0.0350436	      0.0013503	      0.0000000
     -0.0360398	      0.0012619	      0.0000000
     -0.0369571	      0.0011620	      0.0000000
     -0.0377872	      0.0010509	      0.0000000
     -0.0385219	      0.0009289	      0.0000000
     -0.0391535	      0.0007963	      0.0000000
     -0.0396745	      0.0006537	      0.0000000
     -0.0400782	      0.0005017	      0.0000000
     -0.0403583	      0.0003412	      0.0000000
     -0.0405093	      0.0001731	      0.0000000
     -0.0405265	     -0.0000015	      0.0000000
     -0.0404061	     -0.0001814	      0.0000000
     -0.0401453	     -0.0003653	      0.0000000
     -0.0397423	     -0.0005517	      0.0000000
     -0.0391963	     -0.0007392	      0.0000000
     -0.0385078	     -0.0009261	      0.0000000
     -0.0376784	     -0.0011107	      0.0000000
     -0.0367110	     -0.0012914	      0.0000000
     -0.0356096	     -0.0014664	      0.0000000
     -0.0343796	     -0.0016339	      0.0000000
     -0.0330275	     -0.0017923	      0.0000000
     -0.0315609	     -0.0019399	      0.0000000
     -0.0299888	     -0.0020750	      0.0000000
     -0.0283211	     -0.0021962	      0.0000000
     -0.0265687	     -0.0023021	      0.0000000
     -0.0247435	     -0.0023914	      0.0000000
     -0.0228579	     -0.0024632	      0.0000000
     -0.0209254	     -0.0025165	      0.0000000
     -0.0189596	     -0.0025507	      0.0000000
     -0.0169748	     -0.0025655	      0.0000000
     -0.0149852	     -0.0025606	      0.0000000
     -0.0130053	     -0.0025362	      0.0000000
     -0.0110493	     -0.0024925	      0.0000000
     -0.0091312	     -0.0024302	      0.0000000
     -0.0072644	     -0.0023501	      0.0000000
     -0.0054618	     -0.0022532	      0.0000000
     -0.0037355	     -0.0021409	      0.0000000
     -0.0020965	     -0.0020145	      0.0000000
     -0.0005550	     -0.0018758	      0.0000000
      0.0008803	     -0.0017264	      0.0000000
      0.0022016	     -0.0015683	      0.0000000
      0.0034028	     -0.0014034	      0.0000000
      0.0044788	     -0.0012335	      0.0000000
      0.0054262	     -0.0010607	      0.0000000
      0.0062429	     -0.0008868	      0.0000000
      0.0069282	     -0.0007138	      0.0000000
      0.0074826	     -0.0005432	      0.0000000
      0.0079079	     -0.0003767	      0.0000000
      0.0082073	     -0.0002158	      0.0000000
      0.0083849	     -0.0000618	      0.0000000
      0.0084458	      0.0000843	      0.0000000
      0.0083959	      0.0002213	      0.0000000
      0.0082422	      0.0003484	      0.0000000
      0.0079921	      0.0004649	      0.0000000
      0.0076539	      0.0005701	      0.0000000
      0.0072364	      0.0006633	      0.0000000
      0.0067489	      0.0007439	      0.0000000
      0.0062016	      0.0008109	      0.0000000
      0.0056054	      0.0008635	      0.0000000
      0.0049718	      0.0009004	      0.0000000
      0.0043136	      0.0009200	      0.0000000
      0.0036447	      0.0009202	      0.0000000
      0.0029804	      0.0008983	      0.0000000
      0.0023377	      0.0008516	      0.0000000
      0.0017351	      0.0007766	      0.0000000
      0.0011925	      0.0006707	      0.0000000
      0.0007303	      0.0005326	      0.0000000
      0.0003670	      0.0003657	      0.0000000
      0.0001214	      0.0001828	      0.0000000
      0.0000153	      0.0000225	      0.0000000
      0.0000195	     -0.0001095	      0.0000000
      0.0001028	     -0.0002695	      0.0000000
      0.0002428	     -0.0003655	      0.0000000
      0.0004011	     -0.0004031	      0.0000000
      0.0005532	     -0.0003926	      0.0000000
      0.0006823	     -0.0003447	      0.0000000
      0.0007745	     -0.0002691	      0.0000000
      0.0008195	     -0.0001739	      0.0000000
      0.0008096	     -0.0000657	      0.0000000
      0.0007395	      0.0000507	      0.0000000
      0.0006058	      0.0001715	      0.0000000
      0.0004067	      0.0002942	      0.0000000
      0.0001411	      0.0004170	      0.0000000
     -0.0001911	      0.0005388	      0.0000000
     -0.0005899	      0.0006591	      0.0000000
     -0.0010547	      0.0007776	      0.0000000
     -0.0015851	      0.0008946	      0.0000000
     -0.0021806	      0.0010101	      0.0000000
     -0.0028407	      0.0011245	      0.0000000
     -0.0035650	      0.0012382	      0.0000000
     -0.0043534	      0.0013514	      0.0000000
     -0.0052056	      0.0014646	      0.0000000
     -0.0061215	      0.0015779	      0.0000000
     -0.0071012	      0.0016914	      0.0000000
     -0.0081443	      0.0018051	      0.0000000
     -0.0092507	      0.0019189	      0.0000000
     -0.0104200	      0.0020325	      0.0000000
     -0.0116515	      0.0021457	      0.0000000
     -0.0129443	      0.0022579	      0.0000000
     -0.0142973	      0.0023685	      0.0000000
     -0.0157087	      0.0024768	      0.0000000
     -0.0171765	      0.0025820	      0.0000000
     -0.0186980	      0.0026833	      0.0000000
     -0.0202702	      0.0027795	      0.0000000
     -0.0218893	      0.0028697	      0.0000000
     -0.0235510	      0.0029528	      0.0000000
     -0.0252504	      0.0030275	      0.0000000
     -0.0269820	      0.0030927	      0.0000000
     -0.0287395	      0.0031471	      0.0000000
     -0.0305161	      0.0031895	      0.0000000
     -0.0323043	      0.0032187	      0.0000000
     -0.0340961	      0.0032334	      0.0000000
     -0.0358829	      0.0032325	      0.0000000
     -0.0376554	      0.0032149	      0.0000000
     -0.0394041	      0.0031796	      0.0000000
     -0.0411187	      0.0031255	      0.0000000
     -0.0427890	      0.0030520	      0.0000000
     -0.0444041	      0.0029582	      0.0000000
     -0.0459532	      0.0028436	      0.0000000
     -0.0474252	      0.0027080	      0.0000000
     -0.0488090	      0.0025510	      0.0000000
     -0.0500936	      0.0023726	      0.0000000
     -0.0512684	      0.0021731	      0.0000000
     -0.0523228	      0.0019529	      0.0000000
     -0.0532468	      0.0017127	      0.0000000
     -0.0540308	      0.0014532	      0.0000000
     -0.0546660	      0.0011758	      0.0000000
     -0.0551441	      0.0008817	      0.0000000
     -0.0554580	      0.0005725	      0.0000000
     -0.0556012	      0.0002502	      0.0000000
     -0.0555686	     -0.0000833	      0.0000000
     -0.0553560	     -0.0004257	      0.0000000
     -0.0549606	     -0.0007744	      0.0000000
     -0.0543807	     -0.0011269	      0.0000000
     -0.0536162	     -0.0014803	      0.0000000
     -0.0526683	     -0.0018316	      0.0000000
     -0.0515396	     -0.0021779	      0.0000000
     -0.0502344	     -0.0025160	      0.0000000
     -0.0487582	     -0.0028428	      0.0000000
     -0.0471182	     -0.0031552	      0.0000000
     -0.0453229	     -0.0034500	      0.0000000
     -0.0433823	     -0.0037245	      0.0000000
     -0.0413078	     -0.0039756	      0.0000000
     -0.0391120	     -0.0042007	      0.0000000
     -0.0368086	     -0.0043975	      0.0000000
     -0.0344124	     -0.0045637	      0.0000000
     -0.0319393	     -0.0046975	      0.0000000
     -0.0294057	     -0.0047973	      0.0000000
     -0.0268288	     -0.0048622	      0.0000000
     -0.0242262	     -0.0048912	      0.0000000
     -0.0216158	     -0.0048841	      0.0000000
     -0.0190155	     -0.0048411	      0.0000000
     -0.0164432	     -0.0047627	      0.0000000
     -0.0139162	     -0.0046498	      0.0000000
     -0.0114515	     -0.0045041	      0.0000000
     -0.0090655	     -0.0043272	      0.0000000
     -0.0067733	     -0.0041215	      0.0000000
     -0.0045892	     -0.0038895	      0.0000000
     -0.0025263	     -0.0036341	      0.0000000
     -0.0005960	     -0.0033584	      0.0000000
      0.0011914	     -0.0030657	      0.0000000
      0.0028274	     -0.0027595	      0.0000000
      0.0043053	     -0.0024433	      0.0000000
      0.0056197	     -0.0021206	      0.0000000
      0.0067675	     -0.0017950	      0.0000000
      0.0077467	     -0.0014697	      0.0000000
      0.0085575	     -0.0011481	      0.0000000
      0.0092014	     -0.0008331	      0.0000000
      0.0096815	     -0.0005275	      0.0000000
      0.0100024	     -0.0002339	      0.0000000
      0.0101701	      0.0000454	      0.0000000
      0.0101917	      0.0003085	      0.0000000
      0.0100755	      0.0005535	      0.0000000
      0.0098309	      0.0007788	      0.0000000
      0.0094682	      0.0009831	      0.0000000
      0.0089985	      0.0011647	      0.0000000
      0.0084340	      0.0013223	      0.0000000
      0.0077877	      0.0014543	      0.0000000
      0.0070736	      0.0015587	      0.0000000
      0.0063069	      0.0016332	      0.0000000
      0.0055038	      0.0016749	      0.0000000
      0.0046822	      0.0016803	      0.0000000
      0.0038611	      0.0016454	      0.0000000
      0.0030614	      0.0015655	      0.0000000
      0.0023055	      0.0014359	      0.0000000
      0.0016170	      0.0012530	      0.0000000
      0.0010198	      0.0010158	      0.0000000
      0.0005361	      0.0007295	      0.0000000
      0.0001924	      0.0004109	      0.0000000
      0.0000298	      0.0001030	      0.0000000
      0.0000202	     -0.0001671	      0.0000000
      0.0001038	     -0.0003905	      0.0000000
      0.0002394	     -0.0005147	      0.0000000
      0.0003851	     -0.0005543	      0.0000000
      0.0005144	     -0.0005250	      0.0000000
      0.0006096	     -0.0004418	      0.0000000
      0.0006561	     -0.0003182	      0.0000000
      0.0006427	     -0.0001655	      0.0000000
      0.0005613	      0.0000071	      0.0000000
      0.0004062	      0.0001925	      0.0000000
      0.0001733	      0.0003853	      0.0000000
     -0.0001395	      0.0005816	      0.0000000
     -0.0005338	      0.0007788	      0.0000000
     -0.0010100	      0.0009752	      0.0000000
     -0.0015682	      0.0011699	      0.0000000
     -0.0022082	      0.0013625	      0.0000000
     -0.0029297	      0.0015530	      0.0000000
     -0.0037322	      0.0017416	      0.0000000
     -0.0046154	      0.0019288	      0.0000000
     -0.0055789	      0.0021149	      0.0000000
     -0.0066226	      0.0023004	      0.0000000
     -0.0077463	      0.0024857	      0.0000000
     -0.0089495	      0.0026709	      0.0000000
     -0.0102322	      0.0028560	      0.0000000
     -0.0115939	      0.0030411	      0.0000000
     -0.0130339	      0.0032258	      0.0000000
     -0.0145515	      0.0034096	      0.0000000
     -0.0161455	      0.0035919	      0.0000000
     -0.0178143	      0.0037718	      0.0000000
     -0.0195559	      0.0039483	      0.0000000
     -0.0213676	      0.0041202	      0.0000000
     -0.0232465	      0.0042861	      0.0000000
     -0.0251886	      0.0044446	      0.0000000
     -0.0271896	      0.0045940	      0.0000000
     -0.0292442	      0.0047326	      0.0000000
     -0.0313466	      0.0048587	      0.0000000
     -0.0334901	      0.0049703	      0.0000000
     -0.0356673	      0.0050656	      0.0000000
     -0.0378701	      0.0051426	      0.0000000
     -0.0400895	      0.0051993	      0.0000000
     -0.0423159	      0.0052340	      0.0000000
     -0.0445391	      0.0052447	      0.0000000
     -0.0467481	      0.0052297	      0.0000000
     -0.0489315	      0.0051874	      0.0000000
     -0.0510772	      0.0051162	      0.0000000
     -0.0531730	      0.0050148	      0.0000000
     -0.0552061	      0.0048821	      0.0000000
     -0.0571635	      0.0047172	      0.0000000
     -0.0590323	      0.0045194	      0.0000000
     -0.0607992	      0.0042883	      0.0000000
     -0.0624514	      0.0040238	      0.0000000
     -0.0639760	      0.0037260	      0.0000000
     -0.0653607	      0.0033956	      0.0000000
     -0.0665934	      0.0030334	      0.0000000
     -0.0676630	      0.0026406	      0.0000000
     -0.0685587	      0.0022187	      0.0000000
     -0.0692706	      0.0017698	      0.0000000
     -0.0697901	      0.0012961	      0.0000000
     -0.0701093	      0.0008002	      0.0000000
     -0.0702216	      0.0002851	      0.0000000